Cl   ONCVPSP-2.1.1   r_core=    3.22968 1.61693
    17.0000   7.0000   150415   zatom,zion,pspd
    8   11   1   4   600   0   pspcod,pspxc,lmax,lloc,mmax,r2well
    5.99000000   0.00000000   0.00000000   rchrg fchrg qchrg
    2   2   0   0   0   nproj
    1   1   extension_switch
       0                         7.5375562245000E+00  5.9981412245000E-01
     1  0.0000000000000E+00  0.0000000000000E+00  0.0000000000000E+00
     2  1.0000000000000E-02  4.5395555875000E-02 -9.0033796529000E-04
     3  2.0000000000000E-02  9.0747874865000E-02 -1.7680110692000E-03
     4  3.0000000000000E-02  1.3601371648000E-01 -2.5706376230000E-03
     5  4.0000000000000E-02  1.8114983337000E-01 -3.2764004969000E-03
     6  5.0000000000000E-02  2.2611296874000E-01 -3.8543249448000E-03
     7  6.0000000000000E-02  2.7085985478000E-01 -4.2745511040000E-03
     8  7.0000000000000E-02  3.1534721249000E-01 -4.5085994354000E-03
     9  8.0000000000000E-02  3.5953175317000E-01 -4.5296274023000E-03
    10  9.0000000000000E-02  4.0337018189000E-01 -4.3126757206000E-03
    11  1.0000000000000E-01  4.4681920329000E-01 -3.8349025762000E-03
    12  1.1000000000000E-01  4.8983553004000E-01 -3.0758042456000E-03
    13  1.2000000000000E-01  5.3237589415000E-01 -2.0174206327000E-03
    14  1.3000000000000E-01  5.7439706145000E-01 -6.4452428476000E-04
    15  1.4000000000000E-01  6.1585584962000E-01  1.0552083795000E-03
    16  1.5000000000000E-01  6.5670914977000E-01  3.0910450311000E-03
    17  1.6000000000000E-01  6.9691395205000E-01  5.4690655189000E-03
    18  1.7000000000000E-01  7.3642737531000E-01  8.1920514104000E-03
    19  1.8000000000000E-01  7.7520670116000E-01  1.1259397623000E-02
    20  1.9000000000000E-01  8.1320941241000E-01  1.4667047317000E-02
    21  2.0000000000000E-01  8.5039323626000E-01  1.8407450368000E-02
    22  2.1000000000000E-01  8.8671619217000E-01  2.2469546484000E-02
    23  2.2000000000000E-01  9.2213664459000E-01  2.6838772933000E-02
    24  2.3000000000000E-01  9.5661336070000E-01  3.1497097498000E-02
    25  2.4000000000000E-01  9.9010557309000E-01  3.6423076789000E-02
    26  2.5000000000000E-01  1.0225730472000E+00  4.1591939780000E-02
    27  2.6000000000000E-01  1.0539761545000E+00  4.6975696772000E-02
    28  2.7000000000000E-01  1.0842759495000E+00  5.2543272963000E-02
    29  2.8000000000000E-01  1.1134342527000E+00  5.8260666677000E-02
    30  2.9000000000000E-01  1.1414137375000E+00  6.4091131459000E-02
    31  3.0000000000000E-01  1.1681780228000E+00  6.9995381245000E-02
    32  3.1000000000000E-01  1.1936917690000E+00  7.5931817772000E-02
    33  3.2000000000000E-01  1.2179207791000E+00  8.1856779092000E-02
    34  3.3000000000000E-01  1.2408321032000E+00  8.7724806410000E-02
    35  3.4000000000000E-01  1.2623941479000E+00  9.3488931975000E-02
    36  3.5000000000000E-01  1.2825767884000E+00  9.9100981439000E-02
    37  3.6000000000000E-01  1.3013514844000E+00  1.0451189219000E-01
    38  3.7000000000000E-01  1.3186913968000E+00  1.0967204011000E-01
    39  3.8000000000000E-01  1.3345715126000E+00  1.1453158956000E-01
    40  3.9000000000000E-01  1.3489687646000E+00  1.1904083492000E-01
    41  4.0000000000000E-01  1.3618621573000E+00  1.2315055888000E-01
    42  4.1000000000000E-01  1.3732328928000E+00  1.2681239143000E-01
    43  4.2000000000000E-01  1.3830644978000E+00  1.2997916918000E-01
    44  4.3000000000000E-01  1.3913429506000E+00  1.3260529195000E-01
    45  4.4000000000000E-01  1.3980568071000E+00  1.3464707375000E-01
    46  4.5000000000000E-01  1.4031973262000E+00  1.3606308474000E-01
    47  4.6000000000000E-01  1.4067585944000E+00  1.3681448096000E-01
    48  4.7000000000000E-01  1.4087376464000E+00  1.3686531792000E-01
    49  4.8000000000000E-01  1.4091345844000E+00  1.3618284411000E-01
    50  4.9000000000000E-01  1.4079526901000E+00  1.3473776522000E-01
    51  5.0000000000000E-01  1.4051985358000E+00  1.3250448807000E-01
    52  5.1000000000000E-01  1.4008820998000E+00  1.2946135708000E-01
    53  5.2000000000000E-01  1.3950168502000E+00  1.2559078891000E-01
    54  5.3000000000000E-01  1.3876198408000E+00  1.2087941896000E-01
    55  5.4000000000000E-01  1.3787118158000E+00  1.1531823430000E-01
    56  5.5000000000000E-01  1.3683172480000E+00  1.0890253055000E-01
    57  5.6000000000000E-01  1.3564644556000E+00  1.0163200401000E-01
    58  5.7000000000000E-01  1.3431856085000E+00  9.3510580620000E-02
    59  5.8000000000000E-01  1.3285168260000E+00  8.4546374379000E-02
    60  5.9000000000000E-01  1.3124981581000E+00  7.4751406725000E-02
    61  6.0000000000000E-01  1.2951736680000E+00  6.4141409835000E-02
    62  6.1000000000000E-01  1.2765913806000E+00  5.2735422700000E-02
    63  6.2000000000000E-01  1.2568033266000E+00  4.0555392729000E-02
    64  6.3000000000000E-01  1.2358654980000E+00  2.7625643579000E-02
    65  6.4000000000000E-01  1.2138378004000E+00  1.3972315611000E-02
    66  6.5000000000000E-01  1.1907840361000E+00 -3.7742100668000E-04
    67  6.6000000000000E-01  1.1667718002000E+00 -1.5396101532000E-02
    68  6.7000000000000E-01  1.1418723986000E+00 -3.1056830469000E-02
    69  6.8000000000000E-01  1.1161607462000E+00 -4.7334381515000E-02
    70  6.9000000000000E-01  1.0897152303000E+00 -6.4206332632000E-02
    71  7.0000000000000E-01  1.0626175586000E+00 -8.1654228000000E-02
    72  7.1000000000000E-01  1.0349525887000E+00 -9.9664964379000E-02
    73  7.2000000000000E-01  1.0068081432000E+00 -1.1823214399000E-01
    74  7.3000000000000E-01  9.7827476040000E-01 -1.3735811148000E-01
    75  7.4000000000000E-01  9.4944547466000E-01 -1.5705531340000E-01
    76  7.5000000000000E-01  9.2041554184000E-01 -1.7734829798000E-01
    77  7.6000000000000E-01  8.9128214496000E-01 -1.9827574200000E-01
    78  7.7000000000000E-01  8.6214407344000E-01 -2.1989262099000E-01
    79  7.8000000000000E-01  8.3310137556000E-01 -2.4227252554000E-01
    80  7.9000000000000E-01  8.0425498319000E-01 -2.6551012659000E-01
    81  8.0000000000000E-01  7.7570631321000E-01 -2.8972376391000E-01
    82  8.1000000000000E-01  7.4755654703000E-01 -3.1505734334000E-01
    83  8.2000000000000E-01  7.1990498018000E-01 -3.4167997978000E-01
    84  8.3000000000000E-01  6.9284134715000E-01 -3.6976583822000E-01
    85  8.4000000000000E-01  6.6643712381000E-01 -3.9946759595000E-01
    86  8.5000000000000E-01  6.4073810253000E-01 -4.3088867770000E-01
    87  8.6000000000000E-01  6.1575975765000E-01 -4.6405933693000E-01
    88  8.7000000000000E-01  5.9148630752000E-01 -4.9892072467000E-01
    89  8.8000000000000E-01  5.6787376389000E-01 -5.3532004580000E-01
    90  8.9000000000000E-01  5.4485648840000E-01 -5.7301828943000E-01
    91  9.0000000000000E-01  5.2235607635000E-01 -6.1170739538000E-01
    92  9.1000000000000E-01  5.0029160903000E-01 -6.5103891067000E-01
    93  9.2000000000000E-01  4.7858851236000E-01 -6.9065297075000E-01
    94  9.3000000000000E-01  4.5718530042000E-01 -7.3020552263000E-01
    95  9.4000000000000E-01  4.3603737499000E-01 -7.6938914649000E-01
    96  9.5000000000000E-01  4.1511792102000E-01 -8.0794550376000E-01
    97  9.6000000000000E-01  3.9441649013000E-01 -8.4566953823000E-01
    98  9.7000000000000E-01  3.7393612380000E-01 -8.8240705286000E-01
    99  9.8000000000000E-01  3.5368985568000E-01 -9.1804795195000E-01
   100  9.9000000000000E-01  3.3369721854000E-01 -9.5251675093000E-01
   101  1.0000000000000E+00  3.1398149656000E-01 -9.8576598580000E-01
   102  1.0100000000000E+00  2.9456686941000E-01 -1.0177647564000E+00
   103  1.0200000000000E+00  2.7547703948000E-01 -1.0484931468000E+00
   104  1.0300000000000E+00  2.5673423641000E-01 -1.0779375788000E+00
   105  1.0400000000000E+00  2.3835864286000E-01 -1.1060874439000E+00
   106  1.0500000000000E+00  2.2036828615000E-01 -1.1329331168000E+00
   107  1.0600000000000E+00  2.0277851751000E-01 -1.1584641486000E+00
   108  1.0700000000000E+00  1.8560264062000E-01 -1.1826692023000E+00
   109  1.0800000000000E+00  1.6885195086000E-01 -1.2055359647000E+00
   110  1.0900000000000E+00  1.5253595279000E-01 -1.2270513327000E+00
   111  1.1000000000000E+00  1.3666251752000E-01 -1.2472016267000E+00
   112  1.1100000000000E+00  1.2123798178000E-01 -1.2659729310000E+00
   113  1.1200000000000E+00  1.0626753568000E-01 -1.2833518180000E+00
   114  1.1300000000000E+00  9.1755278546000E-02 -1.2993255915000E+00
   115  1.1400000000000E+00  7.7704333817000E-02 -1.3138825563000E+00
   116  1.1500000000000E+00  6.4116904406000E-02 -1.3270126433000E+00
   117  1.1600000000000E+00  5.0994465558000E-02 -1.3387075650000E+00
   118  1.1700000000000E+00  3.8337779480000E-02 -1.3489609407000E+00
   119  1.1800000000000E+00  2.6146937906000E-02 -1.3577686685000E+00
   120  1.1900000000000E+00  1.4421436500000E-02 -1.3651293346000E+00
   121  1.2000000000000E+00  3.1601997071000E-03 -1.3710439546000E+00
   122  1.2100000000000E+00 -7.6384206958000E-03 -1.3755158689000E+00
   123  1.2200000000000E+00 -1.7976561613000E-02 -1.3785518659000E+00
   124  1.2300000000000E+00 -2.7856879676000E-02 -1.3801612068000E+00
   125  1.2400000000000E+00 -3.7282554838000E-02 -1.3803556454000E+00
   126  1.2500000000000E+00 -4.6257210267000E-02 -1.3791502605000E+00
   127  1.2600000000000E+00 -5.4784944350000E-02 -1.3765627483000E+00
   128  1.2700000000000E+00 -6.2870358880000E-02 -1.3726131656000E+00
   129  1.2800000000000E+00 -7.0518459893000E-02 -1.3673246634000E+00
   130  1.2900000000000E+00 -7.7734693845000E-02 -1.3607228119000E+00
   131  1.3000000000000E+00 -8.4524999515000E-02 -1.3528353472000E+00
   132  1.3100000000000E+00 -9.0895654292000E-02 -1.3436927648000E+00
   133  1.3200000000000E+00 -9.6853356363000E-02 -1.3333275573000E+00
   134  1.3300000000000E+00 -1.0240528222000E-01 -1.3217742358000E+00
   135  1.3400000000000E+00 -1.0755883706000E-01 -1.3090694940000E+00
   136  1.3500000000000E+00 -1.1232187896000E-01 -1.2952516559000E+00
   137  1.3600000000000E+00 -1.1670262466000E-01 -1.2803608763000E+00
   138  1.3700000000000E+00 -1.2070949325000E-01 -1.2644386875000E+00
   139  1.3800000000000E+00 -1.2435137098000E-01 -1.2475282341000E+00
   140  1.3900000000000E+00 -1.2763728577000E-01 -1.2296737478000E+00
   141  1.4000000000000E+00 -1.3057655473000E-01 -1.2109205280000E+00
   142  1.4100000000000E+00 -1.3317886555000E-01 -1.1913152712000E+00
   143  1.4200000000000E+00 -1.3545387016000E-01 -1.1709047637000E+00
   144  1.4300000000000E+00 -1.3741169780000E-01 -1.1497373316000E+00
   145  1.4400000000000E+00 -1.3906242725000E-01 -1.1278611850000E+00
   146  1.4500000000000E+00 -1.4041637249000E-01 -1.1053251849000E+00
   147  1.4600000000000E+00 -1.4148407568000E-01 -1.0821789106000E+00
   148  1.4700000000000E+00 -1.4227589844000E-01 -1.0584710007000E+00
   149  1.4800000000000E+00 -1.4280274660000E-01 -1.0342519312000E+00
   150  1.4900000000000E+00 -1.4307504213000E-01 -1.0095699637000E+00
   151  1.5000000000000E+00 -1.4310371551000E-01 -9.8447502086000E-01
   152  1.5100000000000E+00 -1.4289941482000E-01 -9.5901552250000E-01
   153  1.5200000000000E+00 -1.4247290934000E-01 -9.3323995485000E-01
   154  1.5300000000000E+00 -1.4183501202000E-01 -9.0719658914000E-01
   155  1.5400000000000E+00 -1.4099623835000E-01 -8.8093197615000E-01
   156  1.5500000000000E+00 -1.3996749128000E-01 -8.5449388069000E-01
   157  1.5600000000000E+00 -1.3875896024000E-01 -8.2792653102000E-01
   158  1.5700000000000E+00 -1.3738155486000E-01 -8.0127679568000E-01
   159  1.5800000000000E+00 -1.3584514302000E-01 -7.7458655129000E-01
   160  1.5900000000000E+00 -1.3416037273000E-01 -7.4790057840000E-01
   161  1.6000000000000E+00 -1.3233692569000E-01 -7.2125896505000E-01
   162  1.6100000000000E+00 -1.3038505026000E-01 -6.9470378026000E-01
   163  1.6200000000000E+00 -1.2831418981000E-01 -6.6827308996000E-01
   164  1.6300000000000E+00 -1.2613414365000E-01 -6.4200602499000E-01
   165  1.6400000000000E+00 -1.2385404889000E-01 -6.1593833470000E-01
   166  1.6500000000000E+00 -1.2148322540000E-01 -5.9010608152000E-01
   167  1.6600000000000E+00 -1.1903043527000E-01 -5.6454240807000E-01
   168  1.6700000000000E+00 -1.1650450144000E-01 -5.3928024581000E-01
   169  1.6800000000000E+00 -1.1391374326000E-01 -5.1434985455000E-01
   170  1.6900000000000E+00 -1.1126648054000E-01 -4.8978103020000E-01
   171  1.7000000000000E+00 -1.0857052486000E-01 -4.6560089597000E-01
   172  1.7100000000000E+00 -1.0583369639000E-01 -4.4183615644000E-01
   173  1.7200000000000E+00 -1.0306323801000E-01 -4.1851057453000E-01
   174  1.7300000000000E+00 -1.0026648185000E-01 -3.9564784640000E-01
   175  1.7400000000000E+00 -9.7450046843000E-02 -3.7326818960000E-01
   176  1.7500000000000E+00 -9.4620794662000E-02 -3.5139240171000E-01
   177  1.7600000000000E+00 -9.1784672764000E-02 -3.3003701880000E-01
   178  1.7700000000000E+00 -8.8948093214000E-02 -3.0922006188000E-01
   179  1.7800000000000E+00 -8.6116294905000E-02 -2.8895431138000E-01
   180  1.7900000000000E+00 -8.3295260716000E-02 -2.6925512803000E-01
   181  1.8000000000000E+00 -8.0489508587000E-02 -2.5013158127000E-01
   182  1.8100000000000E+00 -7.7704575702000E-02 -2.3159633754000E-01
   183  1.8200000000000E+00 -7.4944369549000E-02 -2.1365528834000E-01
   184  1.8300000000000E+00 -7.2213726397000E-02 -1.9631747292000E-01
   185  1.8400000000000E+00 -6.9516214941000E-02 -1.7958673076000E-01
   186  1.8500000000000E+00 -6.6855866202000E-02 -1.6346818655000E-01
   187  1.8600000000000E+00 -6.4235959868000E-02 -1.4796384551000E-01
   188  1.8700000000000E+00 -6.1659707245000E-02 -1.3307502136000E-01
   189  1.8800000000000E+00 -5.9130136147000E-02 -1.1880203027000E-01
   190  1.8900000000000E+00 -5.6649648563000E-02 -1.0514260510000E-01
   191  1.9000000000000E+00 -5.4221036463000E-02 -9.2095417108000E-02
   192  1.9100000000000E+00 -5.1845974247000E-02 -7.9655112238000E-02
   193  1.9200000000000E+00 -4.9526889569000E-02 -6.7818300488000E-02
   194  1.9300000000000E+00 -4.7265007644000E-02 -5.6577597531000E-02
   195  1.9400000000000E+00 -4.5062059408000E-02 -4.5926666390000E-02
   196  1.9500000000000E+00 -4.2919156149000E-02 -3.5857136298000E-02
   197  1.9600000000000E+00 -4.0837266828000E-02 -2.6359821048000E-02
   198  1.9700000000000E+00 -3.8817397410000E-02 -1.7425294981000E-02
   199  1.9800000000000E+00 -3.6859846064000E-02 -9.0421314224000E-03
   200  1.9900000000000E+00 -3.4965432665000E-02 -1.1995537990000E-03
   201  2.0000000000000E+00 -3.3134045054000E-02  6.1152432257000E-03
   202  2.0100000000000E+00 -3.1365948210000E-02  1.2914919921000E-02
   203  2.0200000000000E+00 -2.9661007388000E-02  1.9212952638000E-02
   204  2.0300000000000E+00 -2.8018885390000E-02  2.5023485198000E-02
   205  2.0400000000000E+00 -2.6439391564000E-02  3.0360975904000E-02
   206  2.0500000000000E+00 -2.4921765320000E-02  3.5240333426000E-02
   207  2.0600000000000E+00 -2.3465528699000E-02  3.9677117570000E-02
   208  2.0700000000000E+00 -2.2069805373000E-02  4.3686761191000E-02
   209  2.0800000000000E+00 -2.0733699706000E-02  4.7285272924000E-02
   210  2.0900000000000E+00 -1.9456306522000E-02  5.0489082368000E-02
   211  2.1000000000000E+00 -1.8236427013000E-02  5.3313952675000E-02
   212  2.1100000000000E+00 -1.7072980269000E-02  5.5777142863000E-02
   213  2.1200000000000E+00 -1.5964668816000E-02  5.7894523360000E-02
   214  2.1300000000000E+00 -1.4910168430000E-02  5.9682755958000E-02
   215  2.1400000000000E+00 -1.3908128466000E-02  6.1159006964000E-02
   216  2.1500000000000E+00 -1.2957090767000E-02  6.2338664424000E-02
   217  2.1600000000000E+00 -1.2055567972000E-02  6.3239304730000E-02
   218  2.1700000000000E+00 -1.1202055774000E-02  6.3876399790000E-02
   219  2.1800000000000E+00 -1.0395001705000E-02  6.4265723312000E-02
   220  2.1900000000000E+00 -9.6327788633000E-03  6.4424560945000E-02
   221  2.2000000000000E+00 -8.9138611217000E-03  6.4366715630000E-02
   222  2.2100000000000E+00 -8.2365757389000E-03  6.4108628705000E-02
   223  2.2200000000000E+00 -7.5993137965000E-03  6.3665209650000E-02
   224  2.2300000000000E+00 -7.0005236930000E-03  6.3049950973000E-02
   225  2.2400000000000E+00 -6.4384429560000E-03  6.2279235460000E-02
   226  2.2500000000000E+00 -5.9115967685000E-03  6.1365142497000E-02
   227  2.2600000000000E+00 -5.4183780653000E-03  6.0321280184000E-02
   228  2.2700000000000E+00 -4.9570815531000E-03  5.9162297975000E-02
   229  2.2800000000000E+00 -4.5263359060000E-03  5.7898616602000E-02
   230  2.2900000000000E+00 -4.1244946575000E-03  5.6543674330000E-02
   231  2.3000000000000E+00 -3.7500530416000E-03  5.5109224723000E-02
   232  2.3100000000000E+00 -3.4016858607000E-03  5.3604924876000E-02
   233  2.3200000000000E+00 -3.0777593620000E-03  5.2043499527000E-02
   234  2.3300000000000E+00 -2.7770178411000E-03  5.0433770569000E-02
   235  2.3400000000000E+00 -2.4981898198000E-03  4.8784601389000E-02
   236  2.3500000000000E+00 -2.2396898453000E-03  4.7107740260000E-02
   237  2.3600000000000E+00 -2.0005287187000E-03  4.5409249727000E-02
   238  2.3700000000000E+00 -1.7794596442000E-03  4.3697486966000E-02
   239  2.3800000000000E+00 -1.5751044085000E-03  4.1981893028000E-02
   240  2.3900000000000E+00 -1.3866087991000E-03  4.0267182666000E-02
   241  2.4000000000000E+00 -1.2128065144000E-03  3.8560713202000E-02
   242  2.4100000000000E+00 -1.0525603275000E-03  3.6869521341000E-02
   243  2.4200000000000E+00 -9.0512277706000E-04  3.5197285002000E-02
   244  2.4300000000000E+00 -7.6943802460000E-04  3.3550159550000E-02
   245  2.4400000000000E+00 -6.4459555836000E-04  3.1933063989000E-02
   246  2.4500000000000E+00 -5.2995684913000E-04  3.0348663229000E-02
   247  2.4600000000000E+00 -4.2459250662000E-04  2.8801842649000E-02
   248  2.4700000000000E+00 -3.2779195385000E-04  2.7295746888000E-02
   249  2.4800000000000E+00 -2.3902699509000E-04  2.5832059191000E-02
   250  2.4900000000000E+00 -1.5750508200000E-04  2.4414376823000E-02
   251  2.5000000000000E+00 -8.2681951981000E-05  2.3044427570000E-02
   252  2.5100000000000E+00 -1.4138711675000E-05  2.1722966333000E-02
   253  2.5200000000000E+00  4.8776264701000E-05  2.0452336477000E-02
   254  2.5300000000000E+00  1.0647648914000E-04  1.9233186920000E-02
   255  2.5400000000000E+00  1.5927626926000E-04  1.8065428854000E-02
   256  2.5500000000000E+00  2.0768874024000E-04  1.6950237345000E-02
   257  2.5600000000000E+00  2.5203013657000E-04  1.5887474974000E-02
   258  2.5700000000000E+00  2.9251931179000E-04  1.4876329470000E-02
   259  2.5800000000000E+00  3.2953971097000E-04  1.3916941735000E-02
   260  2.5900000000000E+00  3.6333851494000E-04  1.3008616205000E-02
   261  2.6000000000000E+00  3.9405282942000E-04  1.2149972467000E-02
   262  2.6100000000000E+00  4.2195117893000E-04  1.1340295669000E-02
   263  2.6200000000000E+00  4.4723246531000E-04  1.0578484503000E-02
   264  2.6300000000000E+00  4.6996988633000E-04  9.8627754989000E-03
   265  2.6400000000000E+00  4.9033708222000E-04  9.1918143593000E-03
   266  2.6500000000000E+00  5.0849697792000E-04  8.5641684315000E-03
   267  2.6600000000000E+00  5.2447975461000E-04  7.9778956700000E-03
   268  2.6700000000000E+00  5.3838830026000E-04  7.4312464517000E-03
   269  2.6800000000000E+00  5.5035385601000E-04  6.9224628136000E-03
   270  2.6900000000000E+00  5.6038577203000E-04  6.4496322800000E-03
   271  2.7000000000000E+00  5.6854449322000E-04  6.0108561612000E-03
   272  2.7100000000000E+00  5.7492228284000E-04  5.6040425524000E-03
   273  2.7200000000000E+00  5.7953452995000E-04  5.2274694406000E-03
   274  2.7300000000000E+00  5.8242267211000E-04  4.8792514901000E-03
   275  2.7400000000000E+00  5.8363847673000E-04  4.5571981451000E-03
   276  2.7500000000000E+00  5.8321865514000E-04  4.2596459879000E-03
   277  2.7600000000000E+00  5.8119975335000E-04  3.9849366924000E-03
   278  2.7700000000000E+00  5.7761920648000E-04  3.7310387248000E-03
   279  2.7800000000000E+00  5.7251911396000E-04  3.4961668634000E-03
   280  2.7900000000000E+00  5.6595022571000E-04  3.2790697662000E-03
   281  2.8000000000000E+00  5.5795786319000E-04  3.0780967415000E-03
   282  2.8100000000000E+00  5.4857693708000E-04  2.8911985919000E-03
   283  2.8200000000000E+00  5.3788382958000E-04  2.7176388798000E-03
   284  2.8300000000000E+00  5.2593959118000E-04  2.5561203515000E-03
   285  2.8400000000000E+00  5.1278838846000E-04  2.4048206418000E-03
   286  2.8500000000000E+00  4.9851457168000E-04  2.2629980058000E-03
   287  2.8600000000000E+00  4.8320205030000E-04  2.1298482540000E-03
   288  2.8700000000000E+00  4.6692171702000E-04  2.0041331641000E-03
   289  2.8800000000000E+00  4.4975102985000E-04  1.8847610856000E-03
   290  2.8900000000000E+00  4.3179765813000E-04  1.7715049826000E-03
   291  2.9000000000000E+00  4.1315627345000E-04  1.6636903313000E-03
   292  2.9100000000000E+00  3.9391113633000E-04  1.5600899670000E-03
   293  2.9200000000000E+00  3.7417642811000E-04  1.4607761551000E-03
   294  2.9300000000000E+00  3.5405937227000E-04  1.3654270922000E-03
   295  2.9400000000000E+00  3.3366812976000E-04  1.2734351555000E-03
   296  2.9500000000000E+00  3.1311153804000E-04  1.1844418496000E-03
   297  2.9600000000000E+00  2.9249826665000E-04  1.0986009214000E-03
   298  2.9700000000000E+00  2.7193940434000E-04  1.0157722513000E-03
   299  2.9800000000000E+00  2.5156664602000E-04  9.3549671420000E-04
   300  2.9900000000000E+00  2.3146759290000E-04  8.5806739273000E-04
   301  3.0000000000000E+00  2.1174470274000E-04  7.8355355755000E-04
   302  3.0100000000000E+00  1.9251971179000E-04  7.1192475525000E-04
   303  3.0200000000000E+00  1.7390705260000E-04  6.4318565572000E-04
   304  3.0300000000000E+00  1.5596346357000E-04  5.7758088977000E-04
   305  3.0400000000000E+00  1.3877651139000E-04  5.1523520445000E-04
   306  3.0500000000000E+00  1.2248617282000E-04  4.5627797407000E-04
   307  3.0600000000000E+00  1.0712671965000E-04  4.0083256249000E-04
   308  3.0700000000000E+00  9.2735728687000E-05  3.4902365712000E-04
   309  3.0800000000000E+00  7.9378677036000E-05  3.0099421104000E-04
   310  3.0900000000000E+00  6.7187713982000E-05  2.5702121702000E-04
   311  3.1000000000000E+00  5.6093676324000E-05  2.1697658425000E-04
   312  3.1100000000000E+00  4.6111500613000E-05  1.8090132184000E-04
   313  3.1200000000000E+00  3.7302068355000E-05  1.4897741571000E-04
   314  3.1300000000000E+00  2.9687439909000E-05  1.2126747966000E-04
   315  3.1400000000000E+00  2.3158325039000E-05  9.7430562244000E-05
   316  3.1500000000000E+00  1.7676398994000E-05  7.7343536394000E-05
   317  3.1600000000000E+00  1.3288726889000E-05  6.1197672373000E-05
   318  3.1700000000000E+00  9.8817086094000E-06  4.8593383162000E-05
   319  3.1800000000000E+00  7.3084736318000E-06  3.9008919278000E-05
   320  3.1900000000000E+00  5.4686771016000E-06  3.2093944363000E-05
   321  3.2000000000000E+00  4.4177976076000E-06  2.8479914090000E-05
   322  3.2100000000000E+00  3.8557699230000E-06  2.6570501294000E-05
   323  3.2200000000000E+00  3.5712194794000E-06  2.5329814767000E-05
   324  3.2300000000000E+00  3.3554392987000E-06  2.3753040555000E-05
   325  3.2400000000000E+00  2.4340275960000E-06  1.7566405982000E-05
   326  3.2500000000000E+00  1.4956262199000E-06  1.0959942803000E-05
   327  3.2600000000000E+00  6.2312166643000E-07  4.6230426862000E-06
   328  3.2700000000000E+00 -4.3831599936000E-08 -3.1006561932000E-07
   329  3.2800000000000E+00 -2.0812862384000E-07 -1.4723060701000E-06
   330  3.2900000000000E+00 -2.1166115913000E-07 -1.4972952958000E-06
   331  3.3000000000000E+00 -1.1128599301000E-07 -7.8723935230000E-07
   332  3.3100000000000E+00  0.0000000000000E+00  0.0000000000000E+00
   333  3.3200000000000E+00  0.0000000000000E+00  0.0000000000000E+00
   334  3.3300000000000E+00  0.0000000000000E+00  0.0000000000000E+00
   335  3.3400000000000E+00  0.0000000000000E+00  0.0000000000000E+00
   336  3.3500000000000E+00  0.0000000000000E+00  0.0000000000000E+00
   337  3.3600000000000E+00  0.0000000000000E+00  0.0000000000000E+00
   338  3.3700000000000E+00  0.0000000000000E+00  0.0000000000000E+00
   339  3.3800000000000E+00  0.0000000000000E+00  0.0000000000000E+00
   340  3.3900000000000E+00  0.0000000000000E+00  0.0000000000000E+00
   341  3.4000000000000E+00  0.0000000000000E+00  0.0000000000000E+00
   342  3.4100000000000E+00  0.0000000000000E+00  0.0000000000000E+00
   343  3.4200000000000E+00  0.0000000000000E+00  0.0000000000000E+00
   344  3.4300000000000E+00  0.0000000000000E+00  0.0000000000000E+00
   345  3.4400000000000E+00  0.0000000000000E+00  0.0000000000000E+00
   346  3.4500000000000E+00  0.0000000000000E+00  0.0000000000000E+00
   347  3.4600000000000E+00  0.0000000000000E+00  0.0000000000000E+00
   348  3.4700000000000E+00  0.0000000000000E+00  0.0000000000000E+00
   349  3.4800000000000E+00  0.0000000000000E+00  0.0000000000000E+00
   350  3.4900000000000E+00  0.0000000000000E+00  0.0000000000000E+00
   351  3.5000000000000E+00  0.0000000000000E+00  0.0000000000000E+00
   352  3.5100000000000E+00  0.0000000000000E+00  0.0000000000000E+00
   353  3.5200000000000E+00  0.0000000000000E+00  0.0000000000000E+00
   354  3.5300000000000E+00  0.0000000000000E+00  0.0000000000000E+00
   355  3.5400000000000E+00  0.0000000000000E+00  0.0000000000000E+00
   356  3.5500000000000E+00  0.0000000000000E+00  0.0000000000000E+00
   357  3.5600000000000E+00  0.0000000000000E+00  0.0000000000000E+00
   358  3.5700000000000E+00  0.0000000000000E+00  0.0000000000000E+00
   359  3.5800000000000E+00  0.0000000000000E+00  0.0000000000000E+00
   360  3.5900000000000E+00  0.0000000000000E+00  0.0000000000000E+00
   361  3.6000000000000E+00  0.0000000000000E+00  0.0000000000000E+00
   362  3.6100000000000E+00  0.0000000000000E+00  0.0000000000000E+00
   363  3.6200000000000E+00  0.0000000000000E+00  0.0000000000000E+00
   364  3.6300000000000E+00  0.0000000000000E+00  0.0000000000000E+00
   365  3.6400000000000E+00  0.0000000000000E+00  0.0000000000000E+00
   366  3.6500000000000E+00  0.0000000000000E+00  0.0000000000000E+00
   367  3.6600000000000E+00  0.0000000000000E+00  0.0000000000000E+00
   368  3.6700000000000E+00  0.0000000000000E+00  0.0000000000000E+00
   369  3.6800000000000E+00  0.0000000000000E+00  0.0000000000000E+00
   370  3.6900000000000E+00  0.0000000000000E+00  0.0000000000000E+00
   371  3.7000000000000E+00  0.0000000000000E+00  0.0000000000000E+00
   372  3.7100000000000E+00  0.0000000000000E+00  0.0000000000000E+00
   373  3.7200000000000E+00  0.0000000000000E+00  0.0000000000000E+00
   374  3.7300000000000E+00  0.0000000000000E+00  0.0000000000000E+00
   375  3.7400000000000E+00  0.0000000000000E+00  0.0000000000000E+00
   376  3.7500000000000E+00  0.0000000000000E+00  0.0000000000000E+00
   377  3.7600000000000E+00  0.0000000000000E+00  0.0000000000000E+00
   378  3.7700000000000E+00  0.0000000000000E+00  0.0000000000000E+00
   379  3.7800000000000E+00  0.0000000000000E+00  0.0000000000000E+00
   380  3.7900000000000E+00  0.0000000000000E+00  0.0000000000000E+00
   381  3.8000000000000E+00  0.0000000000000E+00  0.0000000000000E+00
   382  3.8100000000000E+00  0.0000000000000E+00  0.0000000000000E+00
   383  3.8200000000000E+00  0.0000000000000E+00  0.0000000000000E+00
   384  3.8300000000000E+00  0.0000000000000E+00  0.0000000000000E+00
   385  3.8400000000000E+00  0.0000000000000E+00  0.0000000000000E+00
   386  3.8500000000000E+00  0.0000000000000E+00  0.0000000000000E+00
   387  3.8600000000000E+00  0.0000000000000E+00  0.0000000000000E+00
   388  3.8700000000000E+00  0.0000000000000E+00  0.0000000000000E+00
   389  3.8800000000000E+00  0.0000000000000E+00  0.0000000000000E+00
   390  3.8900000000000E+00  0.0000000000000E+00  0.0000000000000E+00
   391  3.9000000000000E+00  0.0000000000000E+00  0.0000000000000E+00
   392  3.9100000000000E+00  0.0000000000000E+00  0.0000000000000E+00
   393  3.9200000000000E+00  0.0000000000000E+00  0.0000000000000E+00
   394  3.9300000000000E+00  0.0000000000000E+00  0.0000000000000E+00
   395  3.9400000000000E+00  0.0000000000000E+00  0.0000000000000E+00
   396  3.9500000000000E+00  0.0000000000000E+00  0.0000000000000E+00
   397  3.9600000000000E+00  0.0000000000000E+00  0.0000000000000E+00
   398  3.9700000000000E+00  0.0000000000000E+00  0.0000000000000E+00
   399  3.9800000000000E+00  0.0000000000000E+00  0.0000000000000E+00
   400  3.9900000000000E+00  0.0000000000000E+00  0.0000000000000E+00
   401  4.0000000000000E+00  0.0000000000000E+00  0.0000000000000E+00
   402  4.0100000000000E+00  0.0000000000000E+00  0.0000000000000E+00
   403  4.0200000000000E+00  0.0000000000000E+00  0.0000000000000E+00
   404  4.0300000000000E+00  0.0000000000000E+00  0.0000000000000E+00
   405  4.0400000000000E+00  0.0000000000000E+00  0.0000000000000E+00
   406  4.0500000000000E+00  0.0000000000000E+00  0.0000000000000E+00
   407  4.0600000000000E+00  0.0000000000000E+00  0.0000000000000E+00
   408  4.0700000000000E+00  0.0000000000000E+00  0.0000000000000E+00
   409  4.0800000000000E+00  0.0000000000000E+00  0.0000000000000E+00
   410  4.0900000000000E+00  0.0000000000000E+00  0.0000000000000E+00
   411  4.1000000000000E+00  0.0000000000000E+00  0.0000000000000E+00
   412  4.1100000000000E+00  0.0000000000000E+00  0.0000000000000E+00
   413  4.1200000000000E+00  0.0000000000000E+00  0.0000000000000E+00
   414  4.1300000000000E+00  0.0000000000000E+00  0.0000000000000E+00
   415  4.1400000000000E+00  0.0000000000000E+00  0.0000000000000E+00
   416  4.1500000000000E+00  0.0000000000000E+00  0.0000000000000E+00
   417  4.1600000000000E+00  0.0000000000000E+00  0.0000000000000E+00
   418  4.1700000000000E+00  0.0000000000000E+00  0.0000000000000E+00
   419  4.1800000000000E+00  0.0000000000000E+00  0.0000000000000E+00
   420  4.1900000000000E+00  0.0000000000000E+00  0.0000000000000E+00
   421  4.2000000000000E+00  0.0000000000000E+00  0.0000000000000E+00
   422  4.2100000000000E+00  0.0000000000000E+00  0.0000000000000E+00
   423  4.2200000000000E+00  0.0000000000000E+00  0.0000000000000E+00