H     ONCVPSP-4.0.1  r_core=   1.14388
      1.0000      1.0000      190917    zatom,zion,pspd
     8       2   0     4   600     0    pspcod,pspxc,lmax,lloc,mmax,r2well
  5.99000000  0.00000000  0.00000000    rchrg fchrg qchrg
     2     0     0     0     0    nproj
     1     1           extension_switch
   0                        -1.1032006263972E+00 -3.6404567230487E-01
     1  0.0000000000000E+00 -5.6581527685395E-08  3.7836252408940E-08
     2  1.0000000000000E-02  7.4447601984748E-02 -2.3526467436927E-02
     3  2.0000000000000E-02  1.4876944342101E-01 -4.6690336862065E-02
     4  3.0000000000000E-02  2.2284529984472E-01 -6.9134600012058E-02
     5  4.0000000000000E-02  2.9656565315452E-01 -9.0513191983275E-02
     6  5.0000000000000E-02  3.6983614576580E-01 -1.1049588299796E-01
     7  6.0000000000000E-02  4.4258099875140E-01 -1.2877250307955E-01
     8  7.0000000000000E-02  5.1474511837052E-01 -1.4505632410759E-01
     9  8.0000000000000E-02  5.8629467196896E-01 -1.5908646155871E-01
    10  9.0000000000000E-02  6.5721598108624E-01 -1.7062920274223E-01
    11  1.0000000000000E-01  7.2751265433331E-01 -1.7947821778731E-01
    12  1.1000000000000E-01  7.9720096251042E-01 -1.8545366210376E-01
    13  1.2000000000000E-01  8.6630354060656E-01 -1.8840023244878E-01
    14  1.3000000000000E-01  9.3484158273173E-01 -1.8818429094350E-01
    15  1.4000000000000E-01  1.0028257736353E+00 -1.8469022026149E-01
    16  1.5000000000000E-01  1.0702462712971E+00 -1.7781621669649E-01
    17  1.6000000000000E-01  1.1370621163622E+00 -1.6746976400642E-01
    18  1.7000000000000E-01  1.2031904934330E+00 -1.5356305814830E-01
    19  1.8000000000000E-01  1.2684963042942E+00 -1.3600866986919E-01
    20  1.9000000000000E-01  1.3327825323429E+00 -1.1471573755337E-01
    21  2.0000000000000E-01  1.3957818796400E+00 -8.9586976079722E-02
    22  2.1000000000000E-01  1.4571501424600E+00 -6.0516768465066E-02
    23  2.2000000000000E-01  1.5164617579419E+00 -2.7390575942568E-02
    24  2.3000000000000E-01  1.5732079039785E+00  9.9141405283772E-03
    25  2.4000000000000E-01  1.6267974679631E+00  5.1525347460000E-02
    26  2.5000000000000E-01  1.6765611191174E+00  9.7572137053737E-02
    27  2.6000000000000E-01  1.7217586260725E+00  1.4817868815740E-01
    28  2.7000000000000E-01  1.7615894588092E+00  2.0345655621685E-01
    29  2.8000000000000E-01  1.7952066050256E+00  2.6349543579044E-01
    30  2.9000000000000E-01  1.8217334187769E+00  3.2835261677832E-01
    31  3.0000000000000E-01  1.8402832073356E+00  3.9804143076808E-01
    32  3.1000000000000E-01  1.8499811541737E+00  4.7251905422940E-01
    33  3.2000000000000E-01  1.8499880752887E+00  5.5167409819686E-01
    34  3.3000000000000E-01  1.8395254161139E+00  6.3531446724246E-01
    35  3.4000000000000E-01  1.8179008200217E+00  7.2315601190062E-01
    36  3.5000000000000E-01  1.7845335396317E+00  8.1481252654977E-01
    37  3.6000000000000E-01  1.7389789209558E+00  9.0978765776738E-01
    38  3.7000000000000E-01  1.6809511695020E+00  1.0074692855097E+00
    39  3.8000000000000E-01  1.6103436078183E+00  1.1071269207821E+00
    40  3.9000000000000E-01  1.5272456559383E+00  1.2079126289390E+00
    41  4.0000000000000E-01  1.4319558094500E+00  1.3088659381051E+00
    42  4.1000000000000E-01  1.3249899533988E+00  1.4089231286849E+00
    43  4.2000000000000E-01  1.2070844322513E+00  1.5069312242573E+00
    44  4.3000000000000E-01  1.0791933943521E+00  1.6016669185316E+00
    45  4.4000000000000E-01  9.4248004079190E-01  1.6918605800368E+00
    46  4.5000000000000E-01  7.9830153000944E-01  1.7762253787192E+00
    47  4.6000000000000E-01  6.4818741700448E-01  1.8534914797310E+00
    48  4.7000000000000E-01  4.9381163576281E-01  1.9224451526383E+00
    49  4.8000000000000E-01  3.3695816122263E-01  1.9819725522964E+00
    50  4.9000000000000E-01  1.7948060858658E-01  2.0311078447492E+00
    51  5.0000000000000E-01  2.3256240621201E-02  2.0690846678855E+00
    52  5.1000000000000E-01 -1.2985637421812E-01  2.0953425242869E+00
    53  5.2000000000000E-01 -2.7803728628107E-01  2.1094223930422E+00
    54  5.3000000000000E-01 -4.1953061526949E-01  2.1109426898294E+00
    55  5.4000000000000E-01 -5.5267578552215E-01  2.0996197525325E+00
    56  5.5000000000000E-01 -6.7593782523993E-01  2.0752873449250E+00
    57  5.6000000000000E-01 -7.8793584017385E-01  2.0379139056262E+00
    58  5.7000000000000E-01 -8.8746890339846E-01  1.9876169793422E+00
    59  5.8000000000000E-01 -9.7353865736603E-01  1.9246743324598E+00
    60  5.9000000000000E-01 -1.0453680004110E+00  1.8495313371931E+00
    61  6.0000000000000E-01 -1.1024153250634E+00  1.7628043044447E+00
    62  6.1000000000000E-01 -1.1443838873107E+00  1.6652795527460E+00
    63  6.2000000000000E-01 -1.1712260111544E+00  1.5579081160572E+00
    64  6.3000000000000E-01 -1.1831419678549E+00  1.4417961135686E+00
    65  6.4000000000000E-01 -1.1805735102210E+00  1.3181909264392E+00
    66  6.5000000000000E-01 -1.1641921850716E+00  1.1884634460759E+00
    67  6.6000000000000E-01 -1.1348826873568E+00  1.0540867725188E+00
    68  6.7000000000000E-01 -1.0937216532369E+00  9.1661184632195E-01
    69  6.8000000000000E-01 -1.0419524126969E+00  7.7764058980531E-01
    70  6.9000000000000E-01 -9.8095633134459E-01  6.3879721081791E-01
    71  7.0000000000000E-01 -9.1222146264362E-01  5.0169838175753E-01
    72  7.1000000000000E-01 -8.3730930321351E-01  3.6792304658018E-01
    73  7.2000000000000E-01 -7.5782049285020E-01  2.3898262753283E-01
    74  7.3000000000000E-01 -6.7536032609066E-01  1.1629240057815E-01
    75  7.4000000000000E-01 -5.9150494271246E-01  1.1447838317227E-03
    76  7.5000000000000E-01 -5.0776904048957E-01 -1.0531476267973E-01
    77  7.6000000000000E-01 -4.2557590554842E-01 -2.0210859383094E-01
    78  7.7000000000000E-01 -3.4623048521077E-01 -2.8844394529675E-01
    79  7.8000000000000E-01 -2.7089613740187E-01 -3.6372576174821E-01
    80  7.9000000000000E-01 -2.0057558226747E-01 -4.2756495449903E-01
    81  8.0000000000000E-01 -1.3609645884472E-01 -4.7978187969526E-01
    82  8.1000000000000E-01 -7.8101756170240E-02 -5.2040495850641E-01
    83  8.2000000000000E-01 -2.7045248072881E-02 -5.4966449381010E-01
    84  8.3000000000000E-01  1.6808081682294E-02 -5.6798186966375E-01
    85  8.4000000000000E-01  5.3376778011677E-02 -5.7595444658713E-01
    86  8.5000000000000E-01  8.2753105772994E-02 -5.7433658360431E-01
    87  8.6000000000000E-01  1.0518910729958E-01 -5.6401732363294E-01
    88  8.7000000000000E-01  1.2107905089570E-01 -5.4599536904179E-01
    89  8.8000000000000E-01  1.3093888907662E-01 -5.2135204633704E-01
    90  8.9000000000000E-01  1.3538341976431E-01 -4.9122301084555E-01
    91  9.0000000000000E-01  1.3510189629121E-01 -4.5676947237912E-01
    92  9.1000000000000E-01  1.3083286150125E-01 -4.1914973029139E-01
    93  9.2000000000000E-01  1.2333898675833E-01 -3.7949179084632E-01
    94  9.3000000000000E-01  1.1338267831808E-01 -3.3886780186356E-01
    95  9.4000000000000E-01  1.0170317205719E-01 -2.9827098031542E-01
    96  9.5000000000000E-01  8.8995774481700E-02 -2.5859562970294E-01
    97  9.6000000000000E-01  7.5893825395077E-02 -2.2062074798352E-01
    98  9.7000000000000E-01  6.2953858342945E-02 -1.8499761643710E-01
    99  9.8000000000000E-01  5.0644322257632E-02 -1.5224163849174E-01
   100  9.9000000000000E-01  3.9338105167378E-02 -1.2272856873096E-01
   101  1.0000000000000E+00  2.9308972468121E-02 -9.6695140055571E-02
   102  1.0100000000000E+00  2.0731902140450E-02 -7.4243965193022E-02
   103  1.0200000000000E+00  1.3687171560991E-02 -5.5352461384011E-02
   104  1.0300000000000E+00  8.1679292433208E-03 -3.9885427952709E-02
   105  1.0400000000000E+00  4.0908738821388E-03 -2.7610799264373E-02
   106  1.0500000000000E+00  1.3095657865888E-03 -1.8218003356775E-02
   107  1.0600000000000E+00 -3.7018472080505E-04 -1.1338282150750E-02
   108  1.0700000000000E+00 -1.1734590423073E-03 -6.5662836066835E-03
   109  1.0800000000000E+00 -1.3386258619378E-03 -3.4821318804596E-03
   110  1.0900000000000E+00 -1.1056226745586E-03 -1.6677694696390E-03
   111  1.1000000000000E+00 -7.4331804813640E-04 -6.8660685099822E-04
   112  1.1100000000000E+00 -3.9569119542059E-04 -2.2951118507473E-04
   113  1.1200000000000E+00 -1.4332747571643E-04 -6.3093864990866E-05
   114  1.1300000000000E+00 -1.9578342670320E-05 -1.7986154841670E-05
   115  1.1400000000000E+00  1.7915109924105E-06 -2.4708631368174E-06
   116  1.1500000000000E+00 -1.4482231489221E-07  1.1448732842651E-07
   117  1.1600000000000E+00 -7.8546184346995E-09  1.7029539469861E-08
   118  1.17  0. -0.
   119  1.18  0.  0.
   120  1.19  0.  0.
   121  1.20  0.  0.
   122  1.21  0.  0.
   123  1.22  0.  0.
   124  1.23  0.  0.
   125  1.24  0.  0.
   126  1.25  0.  0.
   127  1.26  0.  0.
   128  1.27  0.  0.
   129  1.28  0.  0.
   130  1.29  0.  0.
   131  1.30  0.  0.
   132  1.31  0.  0.
   133  1.32  0.  0.
   134  1.33  0.  0.
   135  1.34  0.  0.
   136  1.35  0.  0.
   137  1.36  0.  0.
   138  1.37  0.  0.
   139  1.38  0.  0.
   140  1.39  0.  0.
   141  1.40  0.  0.
   142  1.41  0.  0.
   143  1.42  0.  0.
   144  1.43  0.  0.
   145  1.44  0.  0.
   146  1.45  0.  0.
   147  1.46  0.  0.
   148  1.47  0.  0.
   149  1.48  0.  0.
   150  1.49  0.  0.
   151  1.50  0.  0.
   152  1.51  0.  0.
   153  1.52  0.  0.
   154  1.53  0.  0.
   155  1.54  0.  0.
   156  1.55  0.  0.
   157  1.56  0.  0.
   158  1.57  0.  0.
   159  1.58  0.  0.
   160  1.59  0.  0.
   161  1.60  0.  0.
   162  1.61  0.  0.
   163  1.62  0.  0.
   164  1.63  0.  0.
   165  1.64  0.  0.
   166  1.65  0.  0.
   167  1.66  0.  0.
   168  1.67  0.  0.
   169  1.68  0.  0.
   170  1.69  0.  0.
   171  1.70  0.  0.
   172  1.71  0.  0.
   173  1.72  0.  0.
   174  1.73  0.  0.
   175  1.74  0.  0.
   176  1.75  0.  0.
   177  1.76  0.  0.
   178  1.77  0.  0.
   179  1.78  0.  0.
   180  1.79  0.  0.
   181  1.80  0.  0.
   182  1.81  0.  0.
   183  1.82  0.  0.
   184  1.83  0.  0.
   185  1.84  0.  0.
   186  1.85  0.  0.
   187  1.86  0.  0.
   188  1.87  0.  0.
   189  1.88  0.  0.
   190  1.89  0.  0.
   191  1.90  0.  0.
   192  1.91  0.  0.
   193  1.92  0.  0.
   194  1.93  0.  0.
   195  1.94  0.  0.
   196  1.95  0.  0.
   197  1.96  0.  0.
   198  1.97  0.  0.
   199  1.98  0.  0.
   200  1.99  0.  0.
   201  2.00  0.  0.
   202  2.01  0.  0.
   203  2.02  0.  0.
   204  2.03  0.  0.
   205  2.04  0.  0.
   206  2.05  0.  0.
   207  2.06  0.  0.
   208  2.07  0.  0.
   209  2.08  0.  0.
   210  2.09  0.  0.
   211  2.10  0.  0.
   212  2.11  0.  0.
   213  2.12  0.  0.
   214  2.13  0.  0.
   215  2.14  0.  0.
   216  2.15  0.  0.
   217  2.16  0.  0.
   218  2.17  0.  0.
   219  2.18  0.  0.
   220  2.19  0.  0.
   221  2.20  0.  0.
   222  2.21  0.  0.
   223  2.22  0.  0.
   224  2.23  0.  0.
   225  2.24  0.  0.
   226  2.25  0.  0.
   227  2.26  0.  0.
   228  2.27  0.  0.
   229  2.28  0.  0.
   230  2.29  0.  0.
   231  2.30  0.  0.
   232  2.31  0.  0.
   233  2.32  0.  0.
   234  2.33  0.  0.
   235  2.34  0.  0.
   236  2.35  0.  0.
   237  2.36  0.  0.
   238  2.37  0.  0.
   239  2.38  0.  0.
   240  2.39  0.  0.
   241  2.40  0.  0.
   242  2.41  0.  0.
   243  2.42  0.  0.
   244  2.43  0.  0.
   245  2.44  0.  0.
   246  2.45  0.  0.
   247  2.46  0.  0.
   248  2.47  0.  0.
   249  2.48  0.  0.
   250  2.49  0.  0.
   251  2.50  0.  0.
   252  2.51  0.  0.
   253  2.52  0.  0.
   254  2.53  0.  0.
   255  2.54  0.  0.
   256  2.55  0.  0.
   257  2.56  0.  0.
   258  2.57  0.  0.
   259  2.58  0.  0.
   260  2.59  0.  0.
   261  2.60  0.  0.
   262  2.61  0.  0.
   263  2.62  0.  0.
   264  2.63  0.  0.
   265  2.64  0.  0.
   266  2.65  0.  0.
   267  2.66  0.  0.
   268  2.67  0.  0.
   269  2.68  0.  0.
   270  2.69  0.  0.
   271  2.70  0.  0.
   272  2.71  0.  0.
   273  2.72  0.  0.
   274  2.73  0.  0.
   275  2.74  0.  0.
   276  2.75  0.  0.
   277  2.76  0.  0.
   278  2.77  0.  0.
   279  2.78  0.  0.
   280  2.79  0.  0.
   281  2.80  0.  0.
   282  2.81  0.  0.
   283  2.82  0.  0.
   284  2.83  0.  0.
   285  2.84  0.  0.
   286  2.85  0.  0.
   287  2.86  0.  0.
   288  2.87  0.  0.
   289  2.88  0.  0.
   290  2.89  0.  0.
   291  2.90  0.  0.
   292  2.91  0.  0.
   293  2.92  0.  0.
   294  2.93  0.  0.
   295  2.94  0.  0.
   296  2.95  0.  0.
   297  2.96  0.  0.
   298  2.97  0.  0.
   299  2.98  0.  0.
   300  2.99  0.  0.
   301  3.00  0.  0.
   302  3.01  0.  0.
   303  3.02  0.  0.
   304  3.03  0.  0.
   305  3.04  0.  0.
   306  3.05  0.  0.
   307  3.06  0.  0.
   308  3.07  0.  0.
   309  3.08  0.  0.
   310  3.09  0.  0.
   311  3.10  0.  0.
   312  3.11  0.  0.
   313  3.12  0.  0.
   314  3.13  0.  0.
   315  3.14  0.  0.
   316  3.15  0.  0.
   317  3.16  0.  0.
   318  3.17  0.  0.
   319  3.18  0.  0.
   320  3.19  0.  0.
   321  3.20  0.  0.
   322  3.21  0.  0.
   323  3.22  0.  0.
   324  3.23  0.  0.
   325  3.24  0.  0.
   326  3.25  0.  0.
   327  3.26  0.  0.
   328  3.27  0.  0.
   329  3.28  0.  0.
   330  3.29  0.  0.
   331  3.30  0.  0.
   332  3.31  0.  0.
   333  3.32  0.  0.
   334  3.33  0.  0.
   335  3.34  0.  0.
   336  3.35  0.  0.
   337  3.36  0.  0.
   338  3.37  0.  0.
   339  3.38  0.  0.
   340  3.39  0.  0.
   341  3.40  0.  0.
   342  3.41  0.  0.
   343  3.42  0.  0.
   344  3.43  0.  0.
   345  3.44  0.  0.
   346  3.45  0.  0.
   347  3.46  0.  0.
   348  3.47  0.  0.
   349  3.48  0.  0.
   350  3.49  0.  0.
   351  3.50  0.  0.
   352  3.51  0.  0.
   353  3.52  0.  0.
   354  3.53  0.  0.
   355  3.54  0.  0.
   356  3.55  0.  0.
   357  3.56  0.  0.
   358  3.57  0.  0.
   359  3.58  0.  0.
   360  3.59  0.  0.
   361  3.60  0.  0.
   362  3.61  0.  0.
   363  3.62  0.  0.
   364  3.63  0.  0.
   365  3.64  0.  0.
   366  3.65  0.  0.
   367  3.66  0.  0.
   368  3.67  0.  0.
   369  3.68  0.  0.
   370  3.69  0.  0.
   371  3.70  0.  0.
   372  3.71  0.  0.
   373  3.72  0.  0.
   374  3.73  0.  0.
   375  3.74  0.  0.
   376  3.75  0.  0.
   377  3.76  0.  0.
   378  3.77  0.  0.
   379  3.78  0.  0.
   380  3.79  0.  0.
   381  3.80  0.  0.
   382  3.81  0.  0.
   383  3.82  0.  0.
   384  3.83  0.  0.
   385  3.84  0.  0.
   386  3.85  0.  0.
   387  3.86  0.  0.
   388  3.87  0.  0.
   389  3.88  0.  0.
   390  3.89  0.  0.
   391  3.90  0.  0.
   392  3.91  0.  0.
   393  3.92  0.  0.
   394  3.93  0.  0.
   395  3.94  0.  0.
   396  3.95  0.  0.
   397  3.96  0.  0.
   398  3.97  0.  0.
   399  3.98  0.  0.
   400  3.99  0.  0.
   401  4.00  0.  0.
   402  4.01  0.  0.
   403  4.02  0.  0.
   404  4.03  0.  0.
   405  4.04  0.  0.
   406  4.05  0.  0.
   407  4.06  0.  0.
   408  4.07  0.  0.
   409  4.08  0.  0.
   410  4.09  0.  0.
   411  4.10  0.  0.
   412  4.11  0.  0.
   413  4.12  0.  0.
   414  4.13  0.  0.
   415  4.14  0.  0.
   416  4.15  0.  0.
   417  4.16  0.  0.
   418  4.17  0.  0.
   419  4.18  0.  0.
   420  4.19  0.  0.
   421  4.20  0.  0.
   422  4.21  0.  0.
   423  4.22  0.  0.
   424  4.23  0.  0.
   425  4.24  0.  0.
   426  4.25  0.  0.
   427  4.26  0.  0.
   428  4.27  0.  0.
   429  4.28  0.  0.
   430  4.29  0.  0.
   431  4.30  0.  0.
   432  4.31  0.  0.
   433  4.32  0.  0.
   434  4.33  0.  0.
   435  4.34  0.  0.
   436  4.35  0.  0.
   437  4.36  0.  0.
   438  4.37  0.  0.
   439  4.38  0.  0.
   440  4.39  0.  0.
   441  4.40  0.  0.
   442  4.41  0.  0.
   443  4.42  0.  0.
   444  4.43  0.  0.
   445  4.44  0.  0.
   446  4.45  0.  0.
   447  4.46  0.  0.
   448  4.47  0.  0.
   449  4.48  0.  0.
   450  4.49  0.  0.
   451  4.50  0.  0.
   452  4.51  0.  0.
   453  4.52  0.  0.
   454  4.53  0.  0.
   455  4.54  0.  0.
   456  4.55  0.  0.
   457  4.56  0.  0.
   458  4.57  0.  0.
   459  4.58  0.  0.
   460  4.59  0.  0.
   461  4.60  0.  0.
   462  4.61  0.  0.
   463  4.62  0.  0.
   464  4.63  0.  0.
   465  4.64  0.  0.
   466  4.65  0.  0.
   467  4.66  0.  0.
   468  4.67  0.  0.
   469  4.68  0.  0.
   470  4.69  0.  0.
   471  4.70  0.  0.
   472  4.71  0.  0.
   473  4.72  0.  0.
   474  4.73  0.  0.
   475  4.74  0.  0.
   476  4.75  0.  0.
   477  4.76  0.  0.
   478  4.77  0.  0.
   479  4.78  0.  0.
   480  4.79  0.  0.
   481  4.80  0.  0.
   482  4.81  0.  0.
   483  4.82  0.  0.
   484  4.83  0.  0.
   485  4.84  0.  0.
   486  4.85  0.  0.
   487  4.86  0.  0.
   488  4.87  0.  0.
   489  4.88  0.  0.
   490  4.89  0.  0.
   491  4.90  0.  0.
   492  4.91  0.  0.
   493  4.92  0.  0.
   494  4.93  0.  0.
   495  4.94  0.  0.
   496  4.95  0.  0.
   497  4.96  0.  0.
   498  4.97  0.  0.
   499  4.98  0.  0.
   500  4.99  0.  0.
   501  5.00  0.  0.
   502  5.01  0.  0.
   503  5.02  0.  0.
   504  5.03  0.  0.
   505  5.04  0.  0.
   506  5.05  0.  0.
   507  5.06  0.  0.
   508  5.07  0.  0.
   509  5.08  0.  0.
   510  5.09  0.  0.
   511  5.10  0.  0.
   512  5.11  0.  0.
   513  5.12  0.  0.
   514  5.13  0.  0.
   515  5.14  0.  0.
   516  5.15  0.  0.
   517  5.16  0.  0.
   518  5.17  0.  0.
   519  5.18  0.  0.
   520  5.19  0.  0.
   521  5.20  0.  0.
   522  5.21  0.  0.
   523  5.22  0.  0.
   524  5.23  0.  0.
   525  5.24  0.  0.
   526  5.25  0.  0.
   527  5.26  0.  0.
   528  5.27  0.  0.
   529  5.28  0.  0.
   530  5.29  0.  0.
   531  5.30  0.  0.
   532  5.31  0.  0.
   533  5.32  0.  0.
   534  5.33  0.  0.
   535  5.34  0.  0.
   536  5.35  0.  0.
   537  5.36  0.  0.
   538  5.37  0.  0.
   539  5.38  0.  0.
   540  5.39  0.  0.
   541  5.40  0.  0.
   542  5.41  0.  0.
   543  5.42  0.  0.
   544  5.43  0.  0.
   545  5.44  0.  0.
   546  5.45  0.  0.
   547  5.46  0.  0.
   548  5.47  0.  0.
   549  5.48  0.  0.
   550  5.49  0.  0.
   551  5.50  0.  0.
   552  5.51  0.  0.
   553  5.52  0.  0.
   554  5.53  0.  0.
   555  5.54  0.  0.
   556  5.55  0.  0.
   557  5.56  0.  0.
   558  5.57  0.  0.
   559  5.58  0.  0.
   560  5.59  0.  0.
   561  5.60  0.  0.
   562  5.61  0.  0.
   563  5.62  0.  0.
   564  5.63  0.  0.
   565  5.64  0.  0.
   566  5.65  0.  0.
   567  5.66  0.  0.
   568  5.67  0.  0.
   569  5.68  0.  0.
   570  5.69  0.  0.
   571  5.70  0.  0.
   572  5.71  0.  0.
   573  5.72  0.  0.
   574  5.73  0.  0.
   575  5.74  0.  0.
   576  5.75  0.  0.
   577  5.76  0.  0.
   578  5.77  0.  0.
   579  5.78  0.  0.
   580  5.79  0.  0.
   581  5.80  0.  0.
   582  5.81  0.  0.
   583  5.82  0.  0.
   584  5.83  0.  0.
   585  5.84  0.  0.
   586  5.85  0.  0.
   587  5.86  0.  0.
   588  5.87  0.  0.
   589  5.88  0.  0.
   590  5.89  0.  0.
   591  5.90  0.  0.
   592  5.91  0.  0.
   593  5.92  0.  0.
   594  5.93  0.  0.
   595  5.94  0.  0.
   596  5.95  0.  0.
   597  5.96  0.  0.
   598  5.97  0.  0.
   599  5.98  0.  0.
   600  5.99  0.  0.
   4
     1  0.0000000000000E+00 -4.4274862488635E+00
     2  1.0000000000000E-02 -4.4256709157950E+00
     3  2.0000000000000E-02 -4.4202300678084E+00
     4  3.0000000000000E-02 -4.4111797691585E+00
     5  4.0000000000000E-02 -4.3985466379292E+00
     6  5.0000000000000E-02 -4.3823678314039E+00
     7  6.0000000000000E-02 -4.3626909380421E+00
     8  7.0000000000000E-02 -4.3395738385394E+00
     9  8.0000000000000E-02 -4.3130845359538E+00
    10  9.0000000000000E-02 -4.2833009548669E+00
    11  1.0000000000000E-01 -4.2503107095435E+00
    12  1.1000000000000E-01 -4.2142108410487E+00
    13  1.2000000000000E-01 -4.1751075232776E+00
    14  1.3000000000000E-01 -4.1331157378512E+00
    15  1.4000000000000E-01 -4.0883589178296E+00
    16  1.5000000000000E-01 -4.0409685601920E+00
    17  1.6000000000000E-01 -3.9910838070337E+00
    18  1.7000000000000E-01 -3.9388509954309E+00
    19  1.8000000000000E-01 -3.8844231759240E+00
    20  1.9000000000000E-01 -3.8279595995743E+00
    21  2.0000000000000E-01 -3.7696251735498E+00
    22  2.1000000000000E-01 -3.7095898852024E+00
    23  2.2000000000000E-01 -3.6480281945984E+00
    24  2.3000000000000E-01 -3.5851183954751E+00
    25  2.4000000000000E-01 -3.5210419445952E+00
    26  2.5000000000000E-01 -3.4559827594817E+00
    27  2.6000000000000E-01 -3.3901264845184E+00
    28  2.7000000000000E-01 -3.3236597254099E+00
    29  2.8000000000000E-01 -3.2567692519976E+00
    30  2.9000000000000E-01 -3.1896411694391E+00
    31  3.0000000000000E-01 -3.1224600577598E+00
    32  3.1000000000000E-01 -3.0554080797939E+00
    33  3.2000000000000E-01 -2.9886640575357E+00
    34  3.3000000000000E-01 -2.9224025169280E+00
    35  3.4000000000000E-01 -2.8567927011176E+00
    36  3.5000000000000E-01 -2.7919975522113E+00
    37  3.6000000000000E-01 -2.7281726615683E+00
    38  3.7000000000000E-01 -2.6654651886682E+00
    39  3.8000000000000E-01 -2.6040127485914E+00
    40  3.9000000000000E-01 -2.5439422681530E+00
    41  4.0000000000000E-01 -2.4853688107256E+00
    42  4.1000000000000E-01 -2.4283943697896E+00
    43  4.2000000000000E-01 -2.3731066312418E+00
    44  4.3000000000000E-01 -2.3195777044947E+00
    45  4.4000000000000E-01 -2.2678628223891E+00
    46  4.5000000000000E-01 -2.2179990099437E+00
    47  4.6000000000000E-01 -2.1700037219541E+00
    48  4.7000000000000E-01 -2.1238734494513E+00
    49  4.8000000000000E-01 -2.0795822950222E+00
    50  4.9000000000000E-01 -2.0370805168639E+00
    51  5.0000000000000E-01 -1.9962931309621E+00
    52  5.1000000000000E-01 -1.9571254042256E+00
    53  5.2000000000000E-01 -1.9194831210279E+00
    54  5.3000000000000E-01 -1.8832790006649E+00
    55  5.4000000000000E-01 -1.8484321536215E+00
    56  5.5000000000000E-01 -1.8148675091856E+00
    57  5.6000000000000E-01 -1.7825153048552E+00
    58  5.7000000000000E-01 -1.7513106297627E+00
    59  5.8000000000000E-01 -1.7211930155460E+00
    60  5.9000000000000E-01 -1.6921060689763E+00
    61  6.0000000000000E-01 -1.6639971414036E+00
    62  6.1000000000000E-01 -1.6368170307227E+00
    63  6.2000000000000E-01 -1.6105197121109E+00
    64  6.3000000000000E-01 -1.5850620942615E+00
    65  6.4000000000000E-01 -1.5604037982424E+00
    66  6.5000000000000E-01 -1.5365069564644E+00
    67  6.6000000000000E-01 -1.5133360295448E+00
    68  6.7000000000000E-01 -1.4908576391239E+00
    69  6.8000000000000E-01 -1.4690404149177E+00
    70  6.9000000000000E-01 -1.4478548545001E+00
    71  7.0000000000000E-01 -1.4272731944820E+00
    72  7.1000000000000E-01 -1.4072692919147E+00
    73  7.2000000000000E-01 -1.3878185148822E+00
    74  7.3000000000000E-01 -1.3688976413715E+00
    75  7.4000000000000E-01 -1.3504847656163E+00
    76  7.5000000000000E-01 -1.3325592112079E+00
    77  7.6000000000000E-01 -1.3151014503499E+00
    78  7.7000000000000E-01 -1.2980930287113E+00
    79  7.8000000000000E-01 -1.2815164953952E+00
    80  7.9000000000000E-01 -1.2653553376040E+00
    81  8.0000000000000E-01 -1.2495939196278E+00
    82  8.1000000000000E-01 -1.2342174258336E+00
    83  8.2000000000000E-01 -1.2192118073674E+00
    84  8.3000000000000E-01 -1.2045637323185E+00
    85  8.4000000000000E-01 -1.1902605391233E+00
    86  8.5000000000000E-01 -1.1762901930102E+00
    87  8.6000000000000E-01 -1.1626412453110E+00
    88  8.7000000000000E-01 -1.1493027954783E+00
    89  8.8000000000000E-01 -1.1362644556643E+00
    90  8.9000000000000E-01 -1.1235163177300E+00
    91  9.0000000000000E-01 -1.1110489225592E+00
    92  9.1000000000000E-01 -1.0988532315613E+00
    93  9.2000000000000E-01 -1.0869206002524E+00
    94  9.3000000000000E-01 -1.0752427538061E+00
    95  9.4000000000000E-01 -1.0638117644697E+00
    96  9.5000000000000E-01 -1.0526200307423E+00
    97  9.6000000000000E-01 -1.0416602582117E+00
    98  9.7000000000000E-01 -1.0309254419492E+00
    99  9.8000000000000E-01 -1.0204088503599E+00
   100  9.9000000000000E-01 -1.0101040103856E+00
   101  1.0000000000000E+00 -1.0000046939617E+00
   102  1.0100000000000E+00 -9.9010490562345E-01
   103  1.0200000000000E+00 -9.8039887116545E-01
   104  1.0300000000000E+00 -9.7088102725274E-01
   105  1.0400000000000E+00 -9.6154601188925E-01
   106  1.0500000000000E+00 -9.5238865564897E-01
   107  1.0600000000000E+00 -9.4340397358016E-01
   108  1.0700000000000E+00 -9.3458715769654E-01
   109  1.0800000000000E+00 -9.2593356997437E-01
   110  1.0900000000000E+00 -9.1743873578032E-01
   111  1.1000000000000E+00 -9.0909833766643E-01
   112  1.1100000000000E+00 -9.0090820947897E-01
   113  1.1200000000000E+00 -8.9286433068421E-01
   114  1.1300000000000E+00 -8.8496282087239E-01
   115  1.1400000000000E+00 -8.7719993442594E-01
   116  1.1500000000000E+00 -8.6957205531592E-01
   117  1.1600000000000E+00 -8.6207569198512E-01
   118  1.1700000000000E+00 -8.5470747223136E-01
   119  1.1800000000000E+00 -8.4746413816140E-01
   120  1.1900000000000E+00 -8.4034254139065E-01
   121  1.2000000000000E+00 -8.3333963848074E-01
   122  1.2100000000000E+00 -8.2645248660284E-01
   123  1.2200000000000E+00 -8.1967823941433E-01
   124  1.2300000000000E+00 -8.1301414313663E-01
   125  1.2400000000000E+00 -8.0645753282275E-01
   126  1.2500000000000E+00 -8.0000582880405E-01
   127  1.2600000000000E+00 -7.9365653330613E-01
   128  1.2700000000000E+00 -7.8740722722473E-01
   129  1.2800000000000E+00 -7.8125556705261E-01
   130  1.2900000000000E+00 -7.7519928194944E-01
   131  1.3000000000000E+00 -7.6923617094698E-01
   132  1.3100000000000E+00 -7.6336410028212E-01
   133  1.3200000000000E+00 -7.5758100085130E-01
   134  1.3300000000000E+00 -7.5188486577967E-01
   135  1.3400000000000E+00 -7.4627374809912E-01
   136  1.3500000000000E+00 -7.4074575852953E-01
   137  1.3600000000000E+00 -7.3529906335789E-01
   138  1.3700000000000E+00 -7.2993188241026E-01
   139  1.3800000000000E+00 -7.2464248711201E-01
   140  1.3900000000000E+00 -7.1942919863170E-01
   141  1.4000000000000E+00 -7.1429038610453E-01
   142  1.4100000000000E+00 -7.0922446493140E-01
   143  1.4200000000000E+00 -7.0422989514985E-01
   144  1.4300000000000E+00 -6.9930517987334E-01
   145  1.4400000000000E+00 -6.9444886379552E-01
   146  1.4500000000000E+00 -6.8965953175649E-01
   147  1.4600000000000E+00 -6.8493580736786E-01
   148  1.4700000000000E+00 -6.8027635169404E-01
   149  1.4800000000000E+00 -6.7567986198691E-01
   150  1.4900000000000E+00 -6.7114507047151E-01
   151  1.5000000000000E+00 -6.6667074318022E-01
   152  1.5100000000000E+00 -6.6225567883336E-01
   153  1.5200000000000E+00 -6.5789870776390E-01
   154  1.5300000000000E+00 -6.5359869088436E-01
   155  1.5400000000000E+00 -6.4935451869401E-01
   156  1.5500000000000E+00 -6.4516511032440E-01
   157  1.5600000000000E+00 -6.4102941262171E-01
   158  1.5700000000000E+00 -6.3694639926409E-01
   159  1.5800000000000E+00 -6.3291506991253E-01
   160  1.5900000000000E+00 -6.2893444939386E-01
   161  1.6000000000000E+00 -6.2500358691423E-01
   162  1.6100000000000E+00 -6.2112155530205E-01
   163  1.6200000000000E+00 -6.1728745027888E-01
   164  1.6300000000000E+00 -6.1350038975718E-01
   165  1.6400000000000E+00 -6.0975951316379E-01
   166  1.6500000000000E+00 -6.0606398078794E-01
   167  1.6600000000000E+00 -6.0241297315290E-01
   168  1.6700000000000E+00 -5.9880569041015E-01
   169  1.6800000000000E+00 -5.9524135175519E-01
   170  1.6900000000000E+00 -5.9171919486416E-01
   171  1.7000000000000E+00 -5.8823847535025E-01
   172  1.7100000000000E+00 -5.8479846623921E-01
   173  1.7200000000000E+00 -5.8139845746321E-01
   174  1.7300000000000E+00 -5.7803775537222E-01
   175  1.7400000000000E+00 -5.7471568226219E-01
   176  1.7500000000000E+00 -5.7143157591947E-01
   177  1.7600000000000E+00 -5.6818478918076E-01
   178  1.7700000000000E+00 -5.6497468950794E-01
   179  1.7800000000000E+00 -5.6180065857725E-01
   180  1.7900000000000E+00 -5.5866209188225E-01
   181  1.8000000000000E+00 -5.5555839835000E-01
   182  1.8100000000000E+00 -5.5248899996997E-01
   183  1.8200000000000E+00 -5.4945333143517E-01
   184  1.8300000000000E+00 -5.4645083979508E-01
   185  1.8400000000000E+00 -5.4348098411987E-01
   186  1.8500000000000E+00 -5.4054323517551E-01
   187  1.8600000000000E+00 -5.3763707510935E-01
   188  1.8700000000000E+00 -5.3476199714586E-01
   189  1.8800000000000E+00 -5.3191750529195E-01
   190  1.8900000000000E+00 -5.2910311405178E-01
   191  1.9000000000000E+00 -5.2631834815050E-01
   192  1.9100000000000E+00 -5.2356274226668E-01
   193  1.9200000000000E+00 -5.2083584077308E-01
   194  1.9300000000000E+00 -5.1813719748557E-01
   195  1.9400000000000E+00 -5.1546637541969E-01
   196  1.9500000000000E+00 -5.1282294655478E-01
   197  1.9600000000000E+00 -5.1020649160532E-01
   198  1.9700000000000E+00 -5.0761659979923E-01
   199  1.9800000000000E+00 -5.0505286866287E-01
   200  1.9900000000000E+00 -5.0251490381252E-01
   201  2.0000000000000E+00 -5.0000231875218E-01
   202  2.0100000000000E+00 -4.9751473467732E-01
   203  2.0200000000000E+00 -4.9505178028450E-01
   204  2.0300000000000E+00 -4.9261309158663E-01
   205  2.0400000000000E+00 -4.9019831173363E-01
   206  2.0500000000000E+00 -4.8780709083838E-01
   207  2.0600000000000E+00 -4.8543908580769E-01
   208  2.0700000000000E+00 -4.8309396017820E-01
   209  2.0800000000000E+00 -4.8077138395703E-01
   210  2.0900000000000E+00 -4.7847103346696E-01
   211  2.1000000000000E+00 -4.7619259119607E-01
   212  2.1100000000000E+00 -4.7393574565163E-01
   213  2.1200000000000E+00 -4.7170019121816E-01
   214  2.1300000000000E+00 -4.6948562801943E-01
   215  2.1400000000000E+00 -4.6729176178443E-01
   216  2.1500000000000E+00 -4.6511830371693E-01
   217  2.1600000000000E+00 -4.6296497036879E-01
   218  2.1700000000000E+00 -4.6083148351673E-01
   219  2.1800000000000E+00 -4.5871757004258E-01
   220  2.1900000000000E+00 -4.5662296181657E-01
   221  2.2000000000000E+00 -4.5454739558404E-01
   222  2.2100000000000E+00 -4.5249061285515E-01
   223  2.2200000000000E+00 -4.5045235979753E-01
   224  2.2300000000000E+00 -4.4843238713188E-01
   225  2.2400000000000E+00 -4.4643045003032E-01
   226  2.2500000000000E+00 -4.4444630801748E-01
   227  2.2600000000000E+00 -4.4247972487421E-01
   228  2.2700000000000E+00 -4.4053046854383E-01
   229  2.2800000000000E+00 -4.3859831104081E-01
   230  2.2900000000000E+00 -4.3668302836196E-01