Mo    ONCVPSP-4.0.1  r_core=   2.30468   2.50601   2.56670
     42.0000     14.0000      200312    zatom,zion,pspd
     8      11   2     4   600     0    pspcod,pspxc,lmax,lloc,mmax,r2well
  5.99000000  0.00000000  0.00000000    rchrg fchrg qchrg
     2     2     2     0     0    nproj
     1     1           extension_switch
   0                         5.5820454031031E+00  1.0164279684942E+00
     1  0.0000000000000E+00 -6.6927019481966E-12  1.9113891025491E-11
     2  1.0000000000000E-02  5.0317456853090E-02 -1.3477033456714E-02
     3  2.0000000000000E-02  1.0056879655779E-01 -2.6901207383371E-02
     4  3.0000000000000E-02  1.5068801464804E-01 -4.0219811339074E-02
     5  4.0000000000000E-02  2.0060933171005E-01 -5.3380432363674E-02
     6  5.0000000000000E-02  2.5026730512936E-01 -6.6331101979109E-02
     7  6.0000000000000E-02  2.9959693990768E-01 -7.9020441117515E-02
     8  7.0000000000000E-02  3.4853379824738E-01 -9.1397802307732E-02
     9  8.0000000000000E-02  3.9701410760828E-01 -1.0341340847090E-01
    10  9.0000000000000E-02  4.4497486694957E-01 -1.1501848769969E-01
    11  1.0000000000000E-01  4.9235395087956E-01 -1.2616540342380E-01
    12  1.1000000000000E-01  5.3909021144741E-01 -1.3680777939654E-01
    13  1.2000000000000E-01  5.8512357732348E-01 -1.4690061897363E-01
    14  1.3000000000000E-01  6.3039515012918E-01 -1.5640041819532E-01
    15  1.4000000000000E-01  6.7484729769220E-01 -1.6526527222597E-01
    16  1.5000000000000E-01  7.1842374401954E-01 -1.7345497475179E-01
    17  1.6000000000000E-01  7.6106965579789E-01 -1.8093110998657E-01
    18  1.7000000000000E-01  8.0273172524915E-01 -1.8765713698651E-01
    19  1.8000000000000E-01  8.4335824918784E-01 -1.9359846602875E-01
    20  1.9000000000000E-01  8.8289920414667E-01 -1.9872252686352E-01
    21  2.0000000000000E-01  9.2130631745633E-01 -2.0299882870564E-01
    22  2.1000000000000E-01  9.5853313418622E-01 -2.0639901188835E-01
    23  2.2000000000000E-01  9.9453507987293E-01 -2.0889689115974E-01
    24  2.3000000000000E-01  1.0292695189842E+00 -2.1046849065902E-01
    25  2.4000000000000E-01  1.0626958090860E+00 -2.1109207066670E-01
    26  2.5000000000000E-01  1.0947753507009E+00 -2.1074814627811E-01
    27  2.6000000000000E-01  1.1254716328653E+00 -2.0941949820398E-01
    28  2.7000000000000E-01  1.1547502744124E+00 -2.0709117595378E-01
    29  2.8000000000000E-01  1.1825790610263E+00 -2.0375049370762E-01
    30  2.9000000000000E-01  1.2089279781288E+00 -1.9938701922942E-01
    31  3.0000000000000E-01  1.2337692396795E+00 -1.9399255621811E-01
    32  3.1000000000000E-01  1.2570773129839E+00 -1.8756112053406E-01
    33  3.2000000000000E-01  1.2788289396158E+00 -1.8008891077441E-01
    34  3.3000000000000E-01  1.2990031525790E+00 -1.7157427370324E-01
    35  3.4000000000000E-01  1.3175812898387E+00 -1.6201766507047E-01
    36  3.5000000000000E-01  1.3345470043656E+00 -1.5142160637602E-01
    37  3.6000000000000E-01  1.3498862708445E+00 -1.3979063815396E-01
    38  3.7000000000000E-01  1.3635873892035E+00 -1.2713127036386E-01
    39  3.8000000000000E-01  1.3756409851250E+00 -1.1345193048383E-01
    40  3.9000000000000E-01  1.3860400077052E+00 -9.8762909901391E-02
    41  4.0000000000000E-01  1.3947797244248E+00 -8.3076309194505E-02
    42  4.1000000000000E-01  1.4018577135983E+00 -6.6405982885404E-02
    43  4.2000000000000E-01  1.4072738544617E+00 -4.8767484234644E-02
    44  4.3000000000000E-01  1.4110303150569E+00 -3.0178010622119E-02
    45  4.4000000000000E-01  1.4131315380647E+00 -1.0656350035423E-02
    46  4.5000000000000E-01  1.4135842247273E+00  9.7771708456586E-03
    47  4.6000000000000E-01  1.4123973169964E+00  3.1100736516293E-02
    48  4.7000000000000E-01  1.4095819780258E+00  5.3291090054860E-02
    49  4.8000000000000E-01  1.4051515711209E+00  7.6323577707721E-02
    50  4.9000000000000E-01  1.3991216372377E+00  1.0017219033643E-01
    51  5.0000000000000E-01  1.3915098711126E+00  1.2480960146707E-01
    52  5.1000000000000E-01  1.3823360960857E+00  1.5020720173944E-01
    53  5.2000000000000E-01  1.3716222376634E+00  1.7633512961361E-01
    54  5.3000000000000E-01  1.3593922958499E+00  2.0316229825481E-01
    55  5.4000000000000E-01  1.3456723162539E+00  2.3065641858192E-01
    56  5.5000000000000E-01  1.3304903599646E+00  2.5878401853087E-01
    57  5.6000000000000E-01  1.3138764721651E+00  2.8751045865130E-01
    58  5.7000000000000E-01  1.2958626494375E+00  3.1679994422114E-01
    59  5.8000000000000E-01  1.2764828056917E+00  3.4661553413044E-01
    60  5.9000000000000E-01  1.2557727366345E+00  3.7691914685065E-01
    61  6.0000000000000E-01  1.2337700826750E+00  4.0767156386881E-01
    62  6.1000000000000E-01  1.2105142901484E+00  4.3883243102698E-01
    63  6.2000000000000E-01  1.1860465707236E+00  4.7036025826478E-01
    64  6.3000000000000E-01  1.1604098588446E+00  5.0221241831680E-01
    65  6.4000000000000E-01  1.1336487670468E+00  5.3434514496627E-01
    66  6.5000000000000E-01  1.1058095389743E+00  5.6671353150088E-01
    67  6.6000000000000E-01  1.0769399999183E+00  5.9927153005554E-01
    68  6.7000000000000E-01  1.0470895046899E+00  6.3197195256023E-01
    69  6.8000000000000E-01  1.0163088826342E+00  6.6476647403703E-01
    70  6.9000000000000E-01  9.8465037959353E-01  6.9760563901052E-01
    71  7.0000000000000E-01  9.5216759662678E-01  7.3043887180710E-01
    72  7.1000000000000E-01  9.1891542529462E-01  7.6321449152382E-01
    73  7.2000000000000E-01  8.8494997932846E-01  7.9587973244336E-01
    74  7.3000000000000E-01  8.5032852250837E-01  8.2838077065995E-01
    75  7.4000000000000E-01  8.1510939258769E-01  8.6066275766105E-01
    76  7.5000000000000E-01  7.7935192111702E-01  8.9266986158093E-01
    77  7.6000000000000E-01  7.4311634903741E-01  9.2434531680515E-01
    78  7.7000000000000E-01  7.0646373793350E-01  9.5563148255964E-01
    79  7.8000000000000E-01  6.6945587686040E-01  9.8646991106470E-01
    80  7.9000000000000E-01  6.3215518468393E-01  1.0168014257721E+00
    81  8.0000000000000E-01  5.9462460790249E-01  1.0465662101350E+00
    82  8.1000000000000E-01  5.5692751394958E-01  1.0757039072824E+00
    83  8.2000000000000E-01  5.1912758000895E-01  1.1041537308892E+00
    84  8.3000000000000E-01  4.8128867740967E-01  1.1318545874388E+00
    85  8.4000000000000E-01  4.4347475170504E-01  1.1587452099847E+00
    86  8.5000000000000E-01  4.0574969857776E-01  1.1847643034127E+00
    87  8.6000000000000E-01  3.6817723575350E-01  1.2098507011037E+00
    88  8.7000000000000E-01  3.3082077114547E-01  1.2339435327851E+00
    89  8.8000000000000E-01  2.9374326749394E-01  1.2569824032524E+00
    90  8.9000000000000E-01  2.5700710380624E-01  1.2789075815244E+00
    91  9.0000000000000E-01  2.2067393394441E-01  1.2996601998848E+00
    92  9.1000000000000E-01  1.8480454274859E-01  1.3191824621482E+00
    93  9.2000000000000E-01  1.4945870012508E-01  1.3374178603755E+00
    94  9.3000000000000E-01  1.1469501356707E-01  1.3543113991515E+00
    95  9.4000000000000E-01  8.0570779613863E-02  1.3698098264324E+00
    96  9.5000000000000E-01  4.7141834790879E-02  1.3838618698639E+00
    97  9.6000000000000E-01  1.4462406605949E-02  1.3964184773731E+00
    98  9.7000000000000E-01 -1.7415034790801E-02  1.4074330607450E+00
    99  9.8000000000000E-01 -4.8439923648072E-02  1.4168617408057E+00
   100  9.9000000000000E-01 -7.8563743694898E-02  1.4246635927591E+00
   101  1.0000000000000E+00 -1.0774017058034E-01  1.4308008901531E+00
   102  1.0100000000000E+00 -1.3592521097140E-01  1.4352393458885E+00
   103  1.0200000000000E+00 -1.6307733759551E-01  1.4379483486395E+00
   104  1.0300000000000E+00 -1.8915761950478E-01  1.4389011930090E+00
   105  1.0400000000000E+00 -2.1412984683424E-01  1.4380753017202E+00
   106  1.0500000000000E+00 -2.3796064932646E-01  1.4354524381261E+00
   107  1.0600000000000E+00 -2.6061960789985E-01  1.4310189073184E+00
   108  1.0700000000000E+00 -2.8207935854764E-01  1.4247657441247E+00
   109  1.0800000000000E+00 -3.0231568786975E-01  1.4166888863075E+00
   110  1.0900000000000E+00 -3.2130761955949E-01  1.4067893313137E+00
   111  1.1000000000000E+00 -3.3903749119262E-01  1.3950732749713E+00
   112  1.1100000000000E+00 -3.5549102069598E-01  1.3815522305936E+00
   113  1.1200000000000E+00 -3.7065736190854E-01  1.3662431270267E+00
   114  1.1300000000000E+00 -3.8452914868734E-01  1.3491683842599E+00
   115  1.1400000000000E+00 -3.9710252705548E-01  1.3303559653241E+00
   116  1.1500000000000E+00 -4.0837717493863E-01  1.3098394033090E+00
   117  1.1600000000000E+00 -4.1835630908930E-01  1.2876578024561E+00
   118  1.1700000000000E+00 -4.2704667885553E-01  1.2638558124158E+00
   119  1.1800000000000E+00 -4.3445854651133E-01  1.2384835748966E+00
   120  1.1900000000000E+00 -4.4060565392967E-01  1.2115966420895E+00
   121  1.2000000000000E+00 -4.4550517544600E-01  1.1832558664041E+00
   122  1.2100000000000E+00 -4.4917765682860E-01  1.1535272612188E+00
   123  1.2200000000000E+00 -4.5164694034353E-01  1.1224818325173E+00
   124  1.2300000000000E+00 -4.5294007597377E-01  1.0901953814571E+00
   125  1.2400000000000E+00 -4.5308721892566E-01  1.0567482780888E+00
   126  1.2500000000000E+00 -4.5212151362929E-01  1.0222252066278E+00
   127  1.2600000000000E+00 -4.5007896451289E-01  9.8671488285063E-01
   128  1.2700000000000E+00 -4.4699829390433E-01  9.5030974437142E-01
   129  1.2800000000000E+00 -4.4292078748453E-01  9.1310561472037E-01
   130  1.2900000000000E+00 -4.3789012778740E-01  8.7520134232062E-01
   131  1.3000000000000E+00 -4.3195221630885E-01  8.3669841562077E-01
   132  1.3100000000000E+00 -4.2515498485245E-01  7.9770055579830E-01
   133  1.3200000000000E+00 -4.1754819680091E-01  7.5831328859754E-01
   134  1.3300000000000E+00 -4.0918323906070E-01  7.1864349700585E-01
   135  1.3400000000000E+00 -4.0011290548094E-01  6.7879895660054E-01
   136  1.3500000000000E+00 -3.9039117259685E-01  6.3888785551645E-01
   137  1.3600000000000E+00 -3.8007296859225E-01  5.9901830108903E-01
   138  1.3700000000000E+00 -3.6921393641437E-01  5.5929781531920E-01
   139  1.3800000000000E+00 -3.5787019200729E-01  5.1983282138323E-01
   140  1.3900000000000E+00 -3.4609807865752E-01  4.8072812347243E-01
   141  1.4000000000000E+00 -3.3395391846572E-01  4.4208638229419E-01
   142  1.4100000000000E+00 -3.2149376197345E-01  4.0400758859549E-01
   143  1.4200000000000E+00 -3.0877313698118E-01  3.6658853708384E-01
   144  1.4300000000000E+00 -2.9584679759527E-01  3.2992230311737E-01
   145  1.4400000000000E+00 -2.8276847453579E-01  2.9409772451574E-01
   146  1.4500000000000E+00 -2.6959062772514E-01  2.5919889080719E-01
   147  1.4600000000000E+00 -2.5636420215801E-01  2.2530464217349E-01
   148  1.4700000000000E+00 -2.4313838802836E-01  1.9248808028540E-01
   149  1.4800000000000E+00 -2.2996038605684E-01  1.6081609313594E-01
   150  1.4900000000000E+00 -2.1687517892440E-01  1.3034889587892E-01
   151  1.5000000000000E+00 -2.0392530967396E-01  1.0113958956469E-01
   152  1.5100000000000E+00 -1.9115066782420E-01  7.3233739275392E-02
   153  1.5200000000000E+00 -1.7858828390864E-01  4.6668973155376E-02
   154  1.5300000000000E+00 -1.6627213772639E-01  2.1474621107329E-02
   155  1.5400000000000E+00 -1.5423295875858E-01 -2.3286898396303E-03
   156  1.5500000000000E+00 -1.4249837498754E-01 -2.4728125819075E-02
   157  1.5600000000000E+00 -1.3109349938223E-01 -4.5716166007302E-02
   158  1.5700000000000E+00 -1.2004114444902E-01 -6.5289676194116E-02
   159  1.5800000000000E+00 -1.0936178589083E-01 -8.3449982778206E-02
   160  1.5900000000000E+00 -9.9073556948133E-02 -1.0020284244071E-01
   161  1.6000000000000E+00 -8.9192248624777E-02 -1.1555840501422E-01
   162  1.6100000000000E+00 -7.9731320386650E-02 -1.2953115136810E-01
   163  1.6200000000000E+00 -7.0701921103209E-02 -1.4213980717588E-01
   164  1.6300000000000E+00 -6.2112920007348E-02 -1.5340723329256E-01
   165  1.6400000000000E+00 -5.3970947423395E-02 -1.6336029348659E-01
   166  1.6500000000000E+00 -4.6280444990594E-02 -1.7202970029478E-01
   167  1.6600000000000E+00 -3.9043725011842E-02 -1.7944984006315E-01
   168  1.6700000000000E+00 -3.2261038533367E-02 -1.8565857826798E-01
   169  1.6800000000000E+00 -2.5930651680628E-02 -1.9069704644613E-01
   170  1.6900000000000E+00 -2.0048929759188E-02 -1.9460941207445E-01
   171  1.7000000000000E+00 -1.4610428554898E-02 -1.9744263295490E-01
   172  1.7100000000000E+00 -9.6079922286542E-03 -1.9924619775572E-01
   173  1.7200000000000E+00 -5.0328571910485E-03 -2.0007185435721E-01
   174  1.7300000000000E+00 -8.7476127037897E-04 -1.9997332786438E-01
   175  1.7400000000000E+00  2.8779425217496E-03 -1.9900603014844E-01
   176  1.7500000000000E+00  6.2381683379401E-03 -1.9722676280528E-01
   177  1.7600000000000E+00  9.2199767108522E-03 -1.9469341554561E-01
   178  1.7700000000000E+00  1.1838451377095E-02 -1.9146466196041E-01
   179  1.7800000000000E+00  1.4109574489549E-02 -1.8759965472512E-01
   180  1.7900000000000E+00  1.6050100965093E-02 -1.8315772218239E-01
   181  1.8000000000000E+00  1.7677432739728E-02 -1.7819806831763E-01
   182  1.8100000000000E+00  1.9009493691414E-02 -1.7277947809547E-01
   183  1.8200000000000E+00  2.0064605962346E-02 -1.6696003002929E-01
   184  1.8300000000000E+00  2.0861368405553E-02 -1.6079681783365E-01
   185  1.8400000000000E+00  2.1418537864083E-02 -1.5434568295643E-01
   186  1.8500000000000E+00  2.1754913946132E-02 -1.4766095964804E-01
   187  1.8600000000000E+00  2.1889227934770E-02 -1.4079523415185E-01
   188  1.8700000000000E+00  2.1840036437769E-02 -1.3379911950298E-01
   189  1.8800000000000E+00  2.1625620330150E-02 -1.2672104726454E-01
   190  1.8900000000000E+00  2.1263889514394E-02 -1.1960707745432E-01
   191  1.9000000000000E+00  2.0772293949256E-02 -1.1250072769534E-01
   192  1.9100000000000E+00  2.0167741368136E-02 -1.0544282254365E-01
   193  1.9200000000000E+00  1.9466522050901E-02 -9.8471363783766E-02
   194  1.9300000000000E+00  1.8684240942088E-02 -9.1621422276898E-02
   195  1.9400000000000E+00  1.7835757360676E-02 -8.4925051816533E-02
   196  1.9500000000000E+00  1.6935132491946E-02 -7.8411225293574E-02
   197  1.9600000000000E+00  1.5995584782466E-02 -7.2105793276955E-02
   198  1.9700000000000E+00  1.5029453294011E-02 -6.6031464933342E-02
   199  1.9800000000000E+00  1.4048169029532E-02 -6.0207811096671E-02
   200  1.9900000000000E+00  1.3062234163221E-02 -5.4651289068765E-02
   201  2.0000000000000E+00  1.2081209064873E-02 -4.9375288622913E-02
   202  2.0100000000000E+00  1.1113706939866E-02 -4.4390198490620E-02
   203  2.0200000000000E+00  1.0167395851274E-02 -3.9703492463372E-02
   204  2.0300000000000E+00  9.2490078432771E-03 -3.5319834115277E-02
   205  2.0400000000000E+00  8.3643548355214E-03 -3.1241199019734E-02
   206  2.0500000000000E+00  7.5183509006196E-03 -2.7467013175937E-02
   207  2.0600000000000E+00  6.7150404771891E-03 -2.3994306199736E-02
   208  2.0700000000000E+00  5.9576321599994E-03 -2.0817878109157E-02
   209  2.0800000000000E+00  5.2485374046095E-03 -1.7930477649174E-02
   210  2.0900000000000E+00  4.5894134194681E-03 -1.5322989923191E-02
   211  2.1000000000000E+00  3.9812108265410E-03 -1.2984634976817E-02
   212  2.1100000000000E+00  3.4242236707682E-03 -1.0903170123125E-02
   213  2.1200000000000E+00  2.9181424654898E-03 -9.0650979917678E-03
   214  2.1300000000000E+00  2.4621096646677E-03 -7.4558784643665E-03
   215  2.1400000000000E+00  2.0547762693241E-03 -6.0601406496332E-03
   216  2.1500000000000E+00  1.6943600733090E-03 -4.8618966307564E-03
   217  2.1600000000000E+00  1.3786994979571E-03 -3.8447369332118E-03
   218  2.1700000000000E+00  1.1053214620556E-03 -2.9920698745041E-03
   219  2.1800000000000E+00  8.7148791946881E-04 -2.2872859944718E-03
   220  2.1900000000000E+00  6.7421595081443E-04 -1.7138355112649E-03
   221  2.2000000000000E+00  5.0994943732885E-04 -1.2541016366635E-03
   222  2.2100000000000E+00  3.7515259173835E-04 -8.9139929517528E-04
   223  2.2200000000000E+00  2.6692334239906E-04 -6.1206008409606E-04
   224  2.2300000000000E+00  1.8223316171879E-04 -4.0289436892290E-04
   225  2.2400000000000E+00  1.1804067361925E-04 -2.5156089384035E-04
   226  2.2500000000000E+00  7.1330144146060E-05 -1.4668504202496E-04
   227  2.2600000000000E+00  3.9144898123156E-05 -7.7960848390112E-05
   228  2.2700000000000E+00  1.8614836727283E-05 -3.6236798382652E-05
   229  2.2800000000000E+00  6.9867726377747E-06 -1.3576849162298E-05
   230  2.2900000000000E+00  1.6355482076576E-06 -3.3516099141698E-06
   231  2.3000000000000E+00  1.0091315545212E-07 -2.7249454776368E-07
   232  2.3100000000000E+00 -1.6367796271306E-08  5.8294174404923E-08
   233  2.3200000000000E+00  4.5257230830492E-09 -1.0717642076431E-08
   234  2.33  0. -0.
   235  2.34 -0.  0.
   236  2.35  0. -0.
   237  2.36  0. -0.
   238  2.37  0.  0.
   239  2.38  0.  0.
   240  2.39  0.  0.
   241  2.40  0.  0.
   242  2.41  0.  0.
   243  2.42  0.  0.
   244  2.43  0.  0.
   245  2.44  0.  0.
   246  2.45  0.  0.
   247  2.46  0.  0.
   248  2.47  0.  0.
   249  2.48  0.  0.
   250  2.49  0.  0.
   251  2.50  0.  0.
   252  2.51  0.  0.
   253  2.52  0.  0.
   254  2.53  0.  0.
   255  2.54  0.  0.
   256  2.55  0.  0.
   257  2.56  0.  0.
   258  2.57  0.  0.
   259  2.58  0.  0.
   260  2.59  0.  0.
   261  2.60  0.  0.
   262  2.61  0.  0.
   263  2.62  0.  0.
   264  2.63  0.  0.
   265  2.64  0.  0.
   266  2.65  0.  0.
   267  2.66  0.  0.
   268  2.67  0.  0.
   269  2.68  0.  0.
   270  2.69  0.  0.
   271  2.70  0.  0.
   272  2.71  0.  0.
   273  2.72  0.  0.
   274  2.73  0.  0.
   275  2.74  0.  0.
   276  2.75  0.  0.
   277  2.76  0.  0.
   278  2.77  0.  0.
   279  2.78  0.  0.
   280  2.79  0.  0.
   281  2.80  0.  0.
   282  2.81  0.  0.
   283  2.82  0.  0.
   284  2.83  0.  0.
   285  2.84  0.  0.
   286  2.85  0.  0.
   287  2.86  0.  0.
   288  2.87  0.  0.
   289  2.88  0.  0.
   290  2.89  0.  0.
   291  2.90  0.  0.
   292  2.91  0.  0.
   293  2.92  0.  0.
   294  2.93  0.  0.
   295  2.94  0.  0.
   296  2.95  0.  0.
   297  2.96  0.  0.
   298  2.97  0.  0.
   299  2.98  0.  0.
   300  2.99  0.  0.
   301  3.00  0.  0.
   302  3.01  0.  0.
   303  3.02  0.  0.
   304  3.03  0.  0.
   305  3.04  0.  0.
   306  3.05  0.  0.
   307  3.06  0.  0.
   308  3.07  0.  0.
   309  3.08  0.  0.
   310  3.09  0.  0.
   311  3.10  0.  0.
   312  3.11  0.  0.
   313  3.12  0.  0.
   314  3.13  0.  0.
   315  3.14  0.  0.
   316  3.15  0.  0.
   317  3.16  0.  0.
   318  3.17  0.  0.
   319  3.18  0.  0.
   320  3.19  0.  0.
   321  3.20  0.  0.
   322  3.21  0.  0.
   323  3.22  0.  0.
   324  3.23  0.  0.
   325  3.24  0.  0.
   326  3.25  0.  0.
   327  3.26  0.  0.
   328  3.27  0.  0.
   329  3.28  0.  0.
   330  3.29  0.  0.
   331  3.30  0.  0.
   332  3.31  0.  0.
   333  3.32  0.  0.
   334  3.33  0.  0.
   335  3.34  0.  0.
   336  3.35  0.  0.
   337  3.36  0.  0.
   338  3.37  0.  0.
   339  3.38  0.  0.
   340  3.39  0.  0.
   341  3.40  0.  0.
   342  3.41  0.  0.
   343  3.42  0.  0.
   344  3.43  0.  0.
   345  3.44  0.  0.
   346  3.45  0.  0.
   347  3.46  0.  0.
   348  3.47  0.  0.
   349  3.48  0.  0.
   350  3.49  0.  0.
   351  3.50  0.  0.
   352  3.51  0.  0.
   353  3.52  0.  0.
   354  3.53  0.  0.
   355  3.54  0.  0.
   356  3.55  0.  0.
   357  3.56  0.  0.
   358  3.57  0.  0.
   359  3.58  0.  0.
   360  3.59  0.  0.
   361  3.60  0.  0.
   362  3.61  0.  0.
   363  3.62  0.  0.
   364  3.63  0.  0.
   365  3.64  0.  0.
   366  3.65  0.  0.
   367  3.66  0.  0.
   368  3.67  0.  0.
   369  3.68  0.  0.
   370  3.69  0.  0.
   371  3.70  0.  0.
   372  3.71  0.  0.
   373  3.72  0.  0.
   374  3.73  0.  0.
   375  3.74  0.  0.
   376  3.75  0.  0.
   377  3.76  0.  0.
   378  3.77  0.  0.
   379  3.78  0.  0.
   380  3.79  0.  0.
   381  3.80  0.  0.
   382  3.81  0.  0.
   383  3.82  0.  0.
   384  3.83  0.  0.
   385  3.84  0.  0.
   386  3.85  0.  0.
   387  3.86  0.  0.
   388  3.87  0.  0.
   389  3.88  0.  0.
   390  3.89  0.  0.
   391  3.90  0.  0.
   392  3.91  0.  0.
   393  3.92  0.  0.
   394  3.93  0.  0.
   395  3.94  0.  0.
   396  3.95  0.  0.
   397  3.96  0.  0.
   398  3.97  0.  0.
   399  3.98  0.  0.
   400  3.99  0.  0.
   401  4.00  0.  0.
   402  4.01  0.  0.
   403  4.02  0.  0.
   404  4.03  0.  0.
   405  4.04  0.  0.
   406  4.05  0.  0.
   407  4.06  0.  0.
   408  4.07  0.  0.
   409  4.08  0.  0.
   410  4.09  0.  0.
   411  4.10  0.  0.
   412  4.11  0.  0.
   413  4.12  0.  0.
   414  4.13  0.  0.
   415  4.14  0.  0.
   416  4.15  0.  0.
   417  4.16  0.  0.
   418  4.17  0.  0.
   419  4.18  0.  0.
   420  4.19  0.  0.
   421  4.20  0.  0.
   422  4.21  0.  0.
   423  4.22  0.  0.
   424  4.23  0.  0.
   425  4.24  0.  0.
   426  4.25  0.  0.
   427  4.26  0.  0.
   428  4.27  0.  0.
   429  4.28  0.  0.
   430  4.29  0.  0.
   431  4.30  0.  0.
   432  4.31  0.  0.
   433  4.32  0.  0.
   434  4.33  0.  0.
   435  4.34  0.  0.
   436  4.35  0.  0.
   437  4.36  0.  0.
   438  4.37  0.  0.
   439  4.38  0.  0.
   440  4.39  0.  0.
   441  4.40  0.  0.
   442  4.41  0.  0.
   443  4.42  0.  0.
   444  4.43  0.  0.
   445  4.44  0.  0.
   446  4.45  0.  0.
   447  4.46  0.  0.
   448  4.47  0.  0.
   449  4.48  0.  0.
   450  4.49  0.  0.
   451  4.50  0.  0.
   452  4.51  0.  0.
   453  4.52  0.  0.
   454  4.53  0.  0.
   455  4.54  0.  0.
   456  4.55  0.  0.
   457  4.56  0.  0.
   458  4.57  0.  0.
   459  4.58  0.  0.
   460  4.59  0.  0.
   461  4.60  0.  0.
   462  4.61  0.  0.
   463  4.62  0.  0.
   464  4.63  0.  0.
   465  4.64  0.  0.
   466  4.65  0.  0.
   467  4.66  0.  0.
   468  4.67  0.  0.
   469  4.68  0.  0.
   470  4.69  0.  0.
   471  4.70  0.  0.
   472  4.71  0.  0.
   473  4.72  0.  0.
   474  4.73  0.  0.
   475  4.74  0.  0.
   476  4.75  0.  0.
   477  4.76  0.  0.
   478  4.77  0.  0.
   479  4.78  0.  0.
   480  4.79  0.  0.
   481  4.80  0.  0.
   482  4.81  0.  0.
   483  4.82  0.  0.
   484  4.83  0.  0.
   485  4.84  0.  0.
   486  4.85  0.  0.
   487  4.86  0.  0.
   488  4.87  0.  0.
   489  4.88  0.  0.
   490  4.89  0.  0.
   491  4.90  0.  0.
   492  4.91  0.  0.
   493  4.92  0.  0.
   494  4.93  0.  0.
   495  4.94  0.  0.
   496  4.95  0.  0.
   497  4.96  0.  0.
   498  4.97  0.  0.
   499  4.98  0.  0.
   500  4.99  0.  0.
   501  5.00  0.  0.
   502  5.01  0.  0.
   503  5.02  0.  0.
   504  5.03  0.  0.
   505  5.04  0.  0.
   506  5.05  0.  0.
   507  5.06  0.  0.
   508  5.07  0.  0.
   509  5.08  0.  0.
   510  5.09  0.  0.
   511  5.10  0.  0.
   512  5.11  0.  0.
   513  5.12  0.  0.
   514  5.13  0.  0.
   515  5.14  0.  0.
   516  5.15  0.  0.
   517  5.16  0.  0.
   518  5.17  0.  0.
   519  5.18  0.  0.
   520  5.19  0.  0.
   521  5.20  0.  0.
   522  5.21  0.  0.
   523  5.22  0.  0.
   524  5.23  0.  0.
   525  5.24  0.  0.
   526  5.25  0.  0.
   527  5.26  0.  0.
   528  5.27  0.  0.
   529  5.28  0.  0.
   530  5.29  0.  0.
   531  5.30  0.  0.
   532  5.31  0.  0.
   533  5.32  0.  0.
   534  5.33  0.  0.
   535  5.34  0.  0.
   536  5.35  0.  0.
   537  5.36  0.  0.
   538  5.37  0.  0.
   539  5.38  0.  0.
   540  5.39  0.  0.
   541  5.40  0.  0.
   542  5.41  0.  0.
   543  5.42  0.  0.
   544  5.43  0.  0.
   545  5.44  0.  0.
   546  5.45  0.  0.
   547  5.46  0.  0.
   548  5.47  0.  0.
   549  5.48  0.  0.
   550  5.49  0.  0.
   551  5.50  0.  0.
   552  5.51  0.  0.
   553  5.52  0.  0.
   554  5.53  0.  0.
   555  5.54  0.  0.
   556  5.55  0.  0.
   557  5.56  0.  0.
   558  5.57  0.  0.
   559  5.58  0.  0.
   560  5.59  0.  0.
   561  5.60  0.  0.
   562  5.61  0.  0.
   563  5.62  0.  0.
   564  5.63  0.  0.
   565  5.64  0.  0.
   566  5.65  0.  0.
   567  5.66  0.  0.
   568  5.67  0.  0.
   569  5.68  0.  0.
   570  5.69  0.  0.
   571  5.70  0.  0.
   572  5.71  0.  0.
   573  5.72  0.  0.
   574  5.73  0.  0.
   575  5.74  0.  0.
   576  5.75  0.  0.
   577  5.76  0.  0.
   578  5.77  0.  0.
   579  5.78  0.  0.
   580  5.79  0.  0.
   581  5.80  0.  0.
   582  5.81  0.  0.
   583  5.82  0.  0.
   584  5.83  0.  0.
   585  5.84  0.  0.
   586  5.85  0.  0.
   587  5.86  0.  0.
   588  5.87  0.  0.
   589  5.88  0.  0.
   590  5.89  0.  0.
   591  5.90  0.  0.
   592  5.91  0.  0.
   593  5.92  0.  0.
   594  5.93  0.  0.
   595  5.94  0.  0.
   596  5.95  0.  0.
   597  5.96  0.  0.
   598  5.97  0.  0.
   599  5.98  0.  0.
   600  5.99  0.  0.
   1                         2.7576564753338E+00  3.5315534936522E-01
     1  0.0000000000000E+00  6.5269567528503E-11 -7.1292589887140E-11
     2  1.0000000000000E-02  1.1330827192922E-03 -5.7240434193458E-04
     3  2.0000000000000E-02  4.5288905931883E-03 -2.2865954743125E-03
     4  3.0000000000000E-02  1.0177113339548E-02 -5.1335190118673E-03
     5  4.0000000000000E-02  1.8060602353887E-02 -9.0981219256723E-03
     6  5.0000000000000E-02  2.8155423390792E-02 -1.4159408835076E-02
     7  6.0000000000000E-02  4.0430930083846E-02 -2.0290520561083E-02
     8  7.0000000000000E-02  5.4849858070893E-02 -2.7458834686440E-02
     9  8.0000000000000E-02  7.1368439426158E-02 -3.5626087796366E-02
    10  9.0000000000000E-02  8.9936537036398E-02 -4.4748519003184E-02
    11  1.0000000000000E-01  1.1049779849491E-01 -5.4777034288026E-02
    12  1.1000000000000E-01  1.3298982902552E-01 -6.5657391124773E-02
    13  1.2000000000000E-01  1.5734438288829E-01 -7.7330402784364E-02
    14  1.3000000000000E-01  1.8348757266021E-01 -8.9732161651866E-02
    15  1.4000000000000E-01  2.1134009572742E-01 -1.0279428082557E-01
    16  1.5000000000000E-01  2.4081747727124E-01 -1.1644415320533E-01
    17  1.6000000000000E-01  2.7183032897789E-01 -1.3060522721812E-01
    18  1.7000000000000E-01  3.0428462265220E-01 -1.4519729827167E-01
    19  1.8000000000000E-01  3.3808197786850E-01 -1.6013681497184E-01
    20  1.9000000000000E-01  3.7311996274753E-01 -1.7533719908826E-01
    21  2.0000000000000E-01  4.0929240690683E-01 -1.9070917820246E-01
    22  2.1000000000000E-01  4.4648972559365E-01 -2.0616112992728E-01
    23  2.2000000000000E-01  4.8459925397442E-01 -2.2159943654288E-01
    24  2.3000000000000E-01  5.2350559052258E-01 -2.3692884885438E-01
    25  2.4000000000000E-01  5.6309094841842E-01 -2.5205285804048E-01
    26  2.5000000000000E-01  6.0323551384929E-01 -2.6687407422865E-01
    27  2.6000000000000E-01  6.4381781007712E-01 -2.8129461050337E-01
    28  2.7000000000000E-01  6.8471506612235E-01 -2.9521647102872E-01
    29  2.8000000000000E-01  7.2580358889921E-01 -3.0854194194430E-01
    30  2.9000000000000E-01  7.6695913762675E-01 -3.2117398367636E-01
    31  3.0000000000000E-01  8.0805729933354E-01 -3.3301662329203E-01
    32  3.1000000000000E-01  8.4897386427084E-01 -3.4397534551539E-01
    33  3.2000000000000E-01  8.8958520005016E-01 -3.5395748101882E-01
    34  3.3000000000000E-01  9.2976862332579E-01 -3.6287259060250E-01
    35  3.4000000000000E-01  9.6940276785136E-01 -3.7063284387800E-01
    36  3.5000000000000E-01  1.0083679477518E+00 -3.7715339108057E-01
    37  3.6000000000000E-01  1.0465465148681E+00 -3.8235272664689E-01
    38  3.7000000000000E-01  1.0838232090523E+00 -3.8615304321197E-01
    39  3.8000000000000E-01  1.1200855003124E+00 -3.8848057470084E-01
    40  3.9000000000000E-01  1.1552239217354E+00 -3.8926592721639E-01
    41  4.0000000000000E-01  1.1891323921455E+00 -3.8844439645553E-01
    42  4.1000000000000E-01  1.2217085274898E+00 -3.8595627042108E-01
    43  4.2000000000000E-01  1.2528539399784E+00 -3.8174711623597E-01
    44  4.3000000000000E-01  1.2824745240499E+00 -3.7576804991125E-01
    45  4.4000000000000E-01  1.3104807282717E+00 -3.6797598796659E-01
    46  4.5000000000000E-01  1.3367878123361E+00 -3.5833387985577E-01
    47  4.6000000000000E-01  1.3613160883556E+00 -3.4681092020583E-01
    48  4.7000000000000E-01  1.3839911457204E+00 -3.3338273993979E-01
    49  4.8000000000000E-01  1.4047440588266E+00 -3.1803157541756E-01
    50  4.9000000000000E-01  1.4235115770466E+00 -3.0074641479848E-01
    51  5.0000000000000E-01  1.4402362963679E+00 -2.8152312090128E-01
    52  5.1000000000000E-01  1.4548668121882E+00 -2.6036452991279E-01
    53  5.2000000000000E-01  1.4673578528165E+00 -2.3728052537605E-01
    54  5.3000000000000E-01  1.4776703932928E+00 -2.1228808697062E-01
    55  5.4000000000000E-01  1.4857717492054E+00 -1.8541131368228E-01
    56  5.5000000000000E-01  1.4916356502489E+00 -1.5668142104751E-01
    57  5.6000000000000E-01  1.4952422933352E+00 -1.2613671224752E-01
    58  5.7000000000000E-01  1.4965783751342E+00 -9.3822522918367E-02
    59  5.8000000000000E-01  1.4956371039932E+00 -5.9791139637564E-02
    60  5.9000000000000E-01  1.4924181912472E+00 -2.4101692142201E-02
    61  6.0000000000000E-01  1.4869278220058E+00  1.3179980569943E-02
    62  6.1000000000000E-01  1.4791786055660E+00  5.1981490008560E-02
    63  6.2000000000000E-01  1.4691895056704E+00  9.2224083482547E-02
    64  6.3000000000000E-01  1.4569857508968E+00  1.3382285447317E-01
    65  6.4000000000000E-01  1.4425987255298E+00  1.7668697754898E-01
    66  6.5000000000000E-01  1.4260658413312E+00  2.2071996718688E-01
    67  6.6000000000000E-01  1.4074303906895E+00  2.6581995976870E-01
    68  6.7000000000000E-01  1.3867413816893E+00  3.1188001792876E-01
    69  6.8000000000000E-01  1.3640533557021E+00  3.5878845633665E-01
    70  6.9000000000000E-01  1.3394261881586E+00  4.0642918790976E-01
    71  7.0000000000000E-01  1.3129248732175E+00  4.5468208936316E-01
    72  7.1000000000000E-01  1.2846192930983E+00  5.0342338492168E-01
    73  7.2000000000000E-01  1.2545839728984E+00  5.5252604693797E-01
    74  7.3000000000000E-01  1.2228978217602E+00  6.0186021208469E-01
    75  7.4000000000000E-01  1.1896438613001E+00  6.5129361171665E-01
    76  7.5000000000000E-01  1.1549089422517E+00  7.0069201493180E-01
    77  7.6000000000000E-01  1.1187834503150E+00  7.4991968279671E-01
    78  7.7000000000000E-01  1.0813610022376E+00  7.9883983214645E-01