Ti    ONCVPSP-3.2.3.1  r_core=   1.35825   1.31050   1.66360
22.0000     12.0000      170504    zatom,zion,pspd
8      11   2     4   600     0    pspcod,pspxc,lmax,lloc,mmax,r2well
5.99000000  2.50000000  0.00000000    rchrg fchrg qchrg
2     2     2     0     0    nproj
1     1           extension_switch
0                         1.1362348499083E+01  1.2636390777285E+00
1  0.0000000000000E+00 -1.6007617453795E-09  5.3542398847917E-09
2  1.0000000000000E-02  8.8821753433117E-02 -4.5944416931463E-02
3  2.0000000000000E-02  1.7734847913100E-01 -9.1422393908878E-02
4  3.0000000000000E-02  2.6528720135287E-01 -1.3597304519972E-01
5  4.0000000000000E-02  3.5234902208894E-01 -1.7914650852776E-01
6  5.0000000000000E-02  4.3825109469824E-01 -2.2050924572931E-01
7  6.0000000000000E-02  5.2271852043418E-01 -2.5964909400668E-01
8  7.0000000000000E-02  6.0548614406829E-01 -2.9617999104859E-01
9  8.0000000000000E-02  6.8630022642346E-01 -3.2974630264152E-01
10  9.0000000000000E-02  7.6491997357909E-01 -3.6002668792267E-01
11  1.0000000000000E-01  8.4111890478058E-01 -3.8673744501635E-01
12  1.1000000000000E-01  9.1468604363679E-01 -4.0963528832852E-01
13  1.2000000000000E-01  9.8542691998017E-01 -4.2851951810705E-01
14  1.3000000000000E-01  1.0531643727489E+00 -4.4323355285554E-01
15  1.4000000000000E-01  1.1177391473804E+00 -4.5366580565236E-01
16  1.5000000000000E-01  1.1790102844279E+00 -4.5974989619991E-01
17  1.6000000000000E-01  1.2368552993764E+00 -4.6146420133643E-01
18  1.7000000000000E-01  1.2911701568838E+00 -4.5883075760106E-01
19  1.8000000000000E-01  1.3418690458552E+00 -4.5191354007462E-01
20  1.9000000000000E-01  1.3888839648233E+00 -4.4081615194444E-01
21  2.0000000000000E-01  1.4321641300001E+00 -4.2567896889382E-01
22  2.1000000000000E-01  1.4716752210378E+00 -4.0667579133088E-01
23  2.2000000000000E-01  1.5073984819503E+00 -3.8401006549991E-01
24  2.3000000000000E-01  1.5393296967525E+00 -3.5791074152370E-01
25  2.4000000000000E-01  1.5674780611436E+00 -3.2862784228942E-01
26  2.5000000000000E-01  1.5918649729604E+00 -2.9642782171068E-01
27  2.6000000000000E-01  1.6125227651340E+00 -2.6158879419603E-01
28  2.7000000000000E-01  1.6294934054790E+00 -2.2439571906763E-01
29  2.8000000000000E-01  1.6428271878212E+00 -1.8513562416823E-01
30  2.9000000000000E-01  1.6525814387214E+00 -1.4409295195589E-01
31  3.0000000000000E-01  1.6588192633823E+00 -1.0154510902435E-01
32  3.1000000000000E-01  1.6616083532467E+00 -5.7758296237130E-02
33  3.2000000000000E-01  1.6610198763199E+00 -1.2983691582939E-02
34  3.3000000000000E-01  1.6571274694088E+00  3.2545948473640E-02
35  3.4000000000000E-01  1.6500063492868E+00  7.8619210853916E-02
36  3.5000000000000E-01  1.6397325573109E+00  1.2504842116035E-01
37  3.6000000000000E-01  1.6263823492715E+00  1.7167147202994E-01
38  3.7000000000000E-01  1.6100317392979E+00  2.1835305431048E-01
39  3.8000000000000E-01  1.5907562035146E+00  2.6498527153349E-01
40  3.9000000000000E-01  1.5686305459139E+00  3.1148762925840E-01
41  4.0000000000000E-01  1.5437289256117E+00  3.5780640216550E-01
42  4.1000000000000E-01  1.5161250413713E+00  4.0391339309509E-01
43  4.2000000000000E-01  1.4858924660412E+00  4.4980410936763E-01
44  4.3000000000000E-01  1.4531051204425E+00  4.9549539249086E-01
45  4.4000000000000E-01  1.4178378732900E+00  5.4102254757169E-01
46  4.5000000000000E-01  1.3801672510143E+00  5.8643602822966E-01
47  4.6000000000000E-01  1.3401722388973E+00  6.3179774138504E-01
48  4.7000000000000E-01  1.2979351528058E+00  6.7717704381319E-01
49  4.8000000000000E-01  1.2535425590329E+00  7.2264650868341E-01
50  4.9000000000000E-01  1.2070862183812E+00  7.6827754531159E-01
51  5.0000000000000E-01  1.1586640296598E+00  8.1413595895774E-01
52  5.1000000000000E-01  1.1083809472579E+00  8.6027753961514E-01
53  5.2000000000000E-01  1.0563498473993E+00  9.0674376931491E-01
54  5.3000000000000E-01  1.0026923180907E+00  9.5355773648513E-01
55  5.4000000000000E-01  9.4753934864796E-01  1.0007203433587E+00
56  5.5000000000000E-01  8.9103189601073E-01  1.0482068883354E+00
57  5.6000000000000E-01  8.3332130681633E-01  1.0959640996462E+00
58  5.7000000000000E-01  7.7456957638120E-01  1.1439076896859E+00
59  5.8000000000000E-01  7.1494942829204E-01  1.1919204911162E+00
60  5.9000000000000E-01  6.5464420120966E-01  1.2398512263801E+00
61  6.0000000000000E-01  5.9384753268025E-01  1.2875139518015E+00
62  6.1000000000000E-01  5.3276283319842E-01  1.3346882060698E+00
63  6.2000000000000E-01  4.7160254738852E-01  1.3811198809262E+00
64  6.3000000000000E-01  4.1058720295413E-01  1.4265228192871E+00
65  6.4000000000000E-01  3.4994425186320E-01  1.4705811333096E+00
66  6.5000000000000E-01  2.8990671209109E-01  1.5129522219890E+00
67  6.6000000000000E-01  2.3071162202540E-01  1.5532704551643E+00
68  6.7000000000000E-01  1.7259832328271E-01  1.5911514784878E+00
69  6.8000000000000E-01  1.1580659116813E-01  1.6261970820971E+00
70  6.9000000000000E-01  6.0574635220084E-02  1.6580005647583E+00
71  7.0000000000000E-01  7.1369951944489E-03  1.6861525152237E+00
72  7.1000000000000E-01 -4.4277639621206E-02  1.7102469237311E+00
73  7.2000000000000E-01 -9.3448657724762E-02  1.7298875289953E+00
74  7.3000000000000E-01 -1.4016576764157E-01  1.7446943000300E+00
75  7.4000000000000E-01 -1.8423122219073E-01  1.7543099476592E+00
76  7.5000000000000E-01 -2.2546199120550E-01  1.7584063578076E+00
77  7.6000000000000E-01 -2.6369184900259E-01  1.7566908376438E+00
78  7.7000000000000E-01 -2.9877334330986E-01  1.7489120664304E+00
79  7.8000000000000E-01 -3.3057961332950E-01  1.7348656455364E+00
80  7.9000000000000E-01 -3.5900602612175E-01  1.7143991464537E+00
81  8.0000000000000E-01 -3.8397160253283E-01  1.6874165617918E+00
82  8.1000000000000E-01 -4.0542020643053E-01  1.6538820720301E+00
83  8.2000000000000E-01 -4.2332147402129E-01  1.6138230501675E+00
84  8.3000000000000E-01 -4.3767146345980E-01  1.5673322372039E+00
85  8.4000000000000E-01 -4.4849300877767E-01  1.5145690334487E+00
86  8.5000000000000E-01 -4.5583576629529E-01  1.4557598638015E+00
87  8.6000000000000E-01 -4.5977594607831E-01  1.3911975891893E+00
88  8.7000000000000E-01 -4.6041572558940E-01  1.3212399510483E+00
89  8.8000000000000E-01 -4.5788234739659E-01  1.2463070508817E+00
90  8.9000000000000E-01 -4.5232690755636E-01  1.1668778822583E+00
91  9.0000000000000E-01 -4.4392284601759E-01  1.0834859479001E+00
92  9.1000000000000E-01 -4.3286415501414E-01  9.9671400948148E-01
93  9.2000000000000E-01 -4.1936332585448E-01  9.0718803218564E-01
94  9.3000000000000E-01 -4.0364905870200E-01  8.1557039969461E-01
95  9.4000000000000E-01 -3.8596376379937E-01  7.2255248788950E-01
96  9.5000000000000E-01 -3.6656088605848E-01  6.2884669689650E-01
97  9.6000000000000E-01 -3.4570208795267E-01  5.3517805102535E-01
98  9.7000000000000E-01 -3.2365432816897E-01  4.4227548447645E-01
99  9.8000000000000E-01 -3.0068687540489E-01  3.5086293710332E-01
100  9.9000000000000E-01 -2.7706829810918E-01  2.6165038928785E-01
101  1.0000000000000E+00 -2.5306347168616E-01  1.7532496750382E-01
102  1.0100000000000E+00 -2.2893064480472E-01  9.2542252727687E-02
103  1.0200000000000E+00 -2.0491860592373E-01  1.3917922327947E-02
104  1.0300000000000E+00 -1.8126398998525E-01 -5.9980147511503E-02
105  1.0400000000000E+00 -1.5818876329718E-01 -1.2863919784956E-01
106  1.0500000000000E+00 -1.3589792249676E-01 -1.9160820729120E-01
107  1.0600000000000E+00 -1.1457744014064E-01 -2.4850371296384E-01
108  1.0700000000000E+00 -9.4392486161238E-02 -2.9901473917699E-01
109  1.0800000000000E+00 -7.5485950387071E-02 -3.4290675373625E-01
110  1.0900000000000E+00 -5.7977286519172E-02 -3.8002458733390E-01
111  1.1000000000000E+00 -4.1961694060894E-02 -4.1029426396995E-01
112  1.1100000000000E+00 -2.7509648462230E-02 -4.3372371045740E-01
113  1.1200000000000E+00 -1.4666785269019E-02 -4.5040232749446E-01
114  1.1300000000000E+00 -3.4541379890218E-03 -4.6049942441457E-01
115  1.1400000000000E+00  6.1312752090171E-03 -4.6426153457575E-01
116  1.1500000000000E+00  1.4115527106653E-02 -4.6200864859011E-01
117  1.1600000000000E+00  2.0546535492620E-02 -4.5412941874732E-01
118  1.1700000000000E+00  2.5492517241407E-02 -4.4107540559593E-01
119  1.1800000000000E+00  2.9040167557908E-02 -4.2335444919715E-01
120  1.1900000000000E+00  3.1292595647428E-02 -4.0152326736833E-01
121  1.2000000000000E+00  3.2367051134311E-02 -3.7617939315768E-01
122  1.2100000000000E+00  3.2392479001853E-02 -3.4795257495983E-01
123  1.2200000000000E+00  3.1506943682809E-02 -3.1749577193469E-01
124  1.2300000000000E+00  2.9854966031869E-02 -2.8547588742995E-01
125  1.2400000000000E+00  2.7584817481316E-02 -2.5256438492817E-01
126  1.2500000000000E+00  2.4845817170918E-02 -2.1942793587018E-01
127  1.2600000000000E+00  2.1785678554496E-02 -1.8671925095702E-01
128  1.2700000000000E+00  1.8547952862131E-02 -1.5506825042928E-01
129  1.2800000000000E+00  1.5269597029900E-02 -1.2507365649976E-01
130  1.2900000000000E+00  1.2078774180769E-02 -9.7295384187038E-02
131  1.3000000000000E+00  9.0926574842650E-03 -7.2246890118567E-02
132  1.3100000000000E+00  6.4162200589598E-03 -5.0391013580963E-02
133  1.3200000000000E+00  4.1414962478103E-03 -3.2143856368508E-02
134  1.3300000000000E+00  2.3282190586388E-03 -1.7748962666520E-02
135  1.3400000000000E+00  1.0481478142383E-03 -7.6003263404628E-03
136  1.3500000000000E+00  3.6800400480831E-04 -2.1082529354260E-03
137  1.3600000000000E+00  1.0709342718811E-04 -1.4958255747368E-04
138  1.3700000000000E+00  1.4957309286130E-05  8.4448035138845E-05
139  1.3800000000000E+00 -3.6721967538817E-06 -4.9616549351333E-05
140  1.3900000000000E+00 -3.6497706060119E-07 -9.8721777351671E-06
141  1.4000000000000E+00  1.2087717774629E-06  8.2819847573546E-06
142  1.4100000000000E+00 -1.8101042488285E-07  4.2870277776495E-07
143  1.4200000000000E+00 -2.8151645194846E-07  6.6673996823635E-07
144  1.4300000000000E+00  0.0000000000000E+00  0.0000000000000E+00
145  1.4400000000000E+00  0.0000000000000E+00  0.0000000000000E+00
146  1.4500000000000E+00  0.0000000000000E+00  0.0000000000000E+00
147  1.4600000000000E+00  0.0000000000000E+00  0.0000000000000E+00
148  1.4700000000000E+00  0.0000000000000E+00  0.0000000000000E+00
149  1.4800000000000E+00  0.0000000000000E+00  0.0000000000000E+00
150  1.4900000000000E+00  0.0000000000000E+00  0.0000000000000E+00
151  1.5000000000000E+00  0.0000000000000E+00  0.0000000000000E+00
152  1.5100000000000E+00  0.0000000000000E+00  0.0000000000000E+00
153  1.5200000000000E+00  0.0000000000000E+00  0.0000000000000E+00
154  1.5300000000000E+00  0.0000000000000E+00  0.0000000000000E+00
155  1.5400000000000E+00  0.0000000000000E+00  0.0000000000000E+00
156  1.5500000000000E+00  0.0000000000000E+00  0.0000000000000E+00
157  1.5600000000000E+00  0.0000000000000E+00  0.0000000000000E+00
158  1.5700000000000E+00  0.0000000000000E+00  0.0000000000000E+00
159  1.5800000000000E+00  0.0000000000000E+00  0.0000000000000E+00
160  1.5900000000000E+00  0.0000000000000E+00  0.0000000000000E+00
161  1.6000000000000E+00  0.0000000000000E+00  0.0000000000000E+00
162  1.6100000000000E+00  0.0000000000000E+00  0.0000000000000E+00
163  1.6200000000000E+00  0.0000000000000E+00  0.0000000000000E+00
164  1.6300000000000E+00  0.0000000000000E+00  0.0000000000000E+00
165  1.6400000000000E+00  0.0000000000000E+00  0.0000000000000E+00
166  1.6500000000000E+00  0.0000000000000E+00  0.0000000000000E+00
167  1.6600000000000E+00  0.0000000000000E+00  0.0000000000000E+00
168  1.6700000000000E+00  0.0000000000000E+00  0.0000000000000E+00
169  1.6800000000000E+00  0.0000000000000E+00  0.0000000000000E+00
170  1.6900000000000E+00  0.0000000000000E+00  0.0000000000000E+00
171  1.7000000000000E+00  0.0000000000000E+00  0.0000000000000E+00
172  1.7100000000000E+00  0.0000000000000E+00  0.0000000000000E+00
173  1.7200000000000E+00  0.0000000000000E+00  0.0000000000000E+00
174  1.7300000000000E+00  0.0000000000000E+00  0.0000000000000E+00
175  1.7400000000000E+00  0.0000000000000E+00  0.0000000000000E+00
176  1.7500000000000E+00  0.0000000000000E+00  0.0000000000000E+00
177  1.7600000000000E+00  0.0000000000000E+00  0.0000000000000E+00
178  1.7700000000000E+00  0.0000000000000E+00  0.0000000000000E+00
179  1.7800000000000E+00  0.0000000000000E+00  0.0000000000000E+00
180  1.7900000000000E+00  0.0000000000000E+00  0.0000000000000E+00
181  1.8000000000000E+00  0.0000000000000E+00  0.0000000000000E+00
182  1.8100000000000E+00  0.0000000000000E+00  0.0000000000000E+00
183  1.8200000000000E+00  0.0000000000000E+00  0.0000000000000E+00
184  1.8300000000000E+00  0.0000000000000E+00  0.0000000000000E+00
185  1.8400000000000E+00  0.0000000000000E+00  0.0000000000000E+00
186  1.8500000000000E+00  0.0000000000000E+00  0.0000000000000E+00
187  1.8600000000000E+00  0.0000000000000E+00  0.0000000000000E+00
188  1.8700000000000E+00  0.0000000000000E+00  0.0000000000000E+00
189  1.8800000000000E+00  0.0000000000000E+00  0.0000000000000E+00
190  1.8900000000000E+00  0.0000000000000E+00  0.0000000000000E+00
191  1.9000000000000E+00  0.0000000000000E+00  0.0000000000000E+00
192  1.9100000000000E+00  0.0000000000000E+00  0.0000000000000E+00
193  1.9200000000000E+00  0.0000000000000E+00  0.0000000000000E+00
194  1.9300000000000E+00  0.0000000000000E+00  0.0000000000000E+00
195  1.9400000000000E+00  0.0000000000000E+00  0.0000000000000E+00
196  1.9500000000000E+00  0.0000000000000E+00  0.0000000000000E+00
197  1.9600000000000E+00  0.0000000000000E+00  0.0000000000000E+00
198  1.9700000000000E+00  0.0000000000000E+00  0.0000000000000E+00
199  1.9800000000000E+00  0.0000000000000E+00  0.0000000000000E+00
200  1.9900000000000E+00  0.0000000000000E+00  0.0000000000000E+00
201  2.0000000000000E+00  0.0000000000000E+00  0.0000000000000E+00
202  2.0100000000000E+00  0.0000000000000E+00  0.0000000000000E+00
203  2.0200000000000E+00  0.0000000000000E+00  0.0000000000000E+00
204  2.0300000000000E+00  0.0000000000000E+00  0.0000000000000E+00
205  2.0400000000000E+00  0.0000000000000E+00  0.0000000000000E+00
206  2.0500000000000E+00  0.0000000000000E+00  0.0000000000000E+00
207  2.0600000000000E+00  0.0000000000000E+00  0.0000000000000E+00
208  2.0700000000000E+00  0.0000000000000E+00  0.0000000000000E+00
209  2.0800000000000E+00  0.0000000000000E+00  0.0000000000000E+00
210  2.0900000000000E+00  0.0000000000000E+00  0.0000000000000E+00
211  2.1000000000000E+00  0.0000000000000E+00  0.0000000000000E+00
212  2.1100000000000E+00  0.0000000000000E+00  0.0000000000000E+00
213  2.1200000000000E+00  0.0000000000000E+00  0.0000000000000E+00
214  2.1300000000000E+00  0.0000000000000E+00  0.0000000000000E+00
215  2.1400000000000E+00  0.0000000000000E+00  0.0000000000000E+00
216  2.1500000000000E+00  0.0000000000000E+00  0.0000000000000E+00
217  2.1600000000000E+00  0.0000000000000E+00  0.0000000000000E+00
218  2.1700000000000E+00  0.0000000000000E+00  0.0000000000000E+00
219  2.1800000000000E+00  0.0000000000000E+00  0.0000000000000E+00
220  2.1900000000000E+00  0.0000000000000E+00  0.0000000000000E+00
221  2.2000000000000E+00  0.0000000000000E+00  0.0000000000000E+00
222  2.2100000000000E+00  0.0000000000000E+00  0.0000000000000E+00
223  2.2200000000000E+00  0.0000000000000E+00  0.0000000000000E+00
224  2.2300000000000E+00  0.0000000000000E+00  0.0000000000000E+00
225  2.2400000000000E+00  0.0000000000000E+00  0.0000000000000E+00
226  2.2500000000000E+00  0.0000000000000E+00  0.0000000000000E+00
227  2.2600000000000E+00  0.0000000000000E+00  0.0000000000000E+00
228  2.2700000000000E+00  0.0000000000000E+00  0.0000000000000E+00
229  2.2800000000000E+00  0.0000000000000E+00  0.0000000000000E+00
230  2.2900000000000E+00  0.0000000000000E+00  0.0000000000000E+00
231  2.3000000000000E+00  0.0000000000000E+00  0.0000000000000E+00
232  2.3100000000000E+00  0.0000000000000E+00  0.0000000000000E+00
233  2.3200000000000E+00  0.0000000000000E+00  0.0000000000000E+00
234  2.3300000000000E+00  0.0000000000000E+00  0.0000000000000E+00
235  2.3400000000000E+00  0.0000000000000E+00  0.0000000000000E+00
236  2.3500000000000E+00  0.0000000000000E+00  0.0000000000000E+00
237  2.3600000000000E+00  0.0000000000000E+00  0.0000000000000E+00
238  2.3700000000000E+00  0.0000000000000E+00  0.0000000000000E+00
239  2.3800000000000E+00  0.0000000000000E+00  0.0000000000000E+00
240  2.3900000000000E+00  0.0000000000000E+00  0.0000000000000E+00
241  2.4000000000000E+00  0.0000000000000E+00  0.0000000000000E+00
242  2.4100000000000E+00  0.0000000000000E+00  0.0000000000000E+00
243  2.4200000000000E+00  0.0000000000000E+00  0.0000000000000E+00
244  2.4300000000000E+00  0.0000000000000E+00  0.0000000000000E+00
245  2.4400000000000E+00  0.0000000000000E+00  0.0000000000000E+00
246  2.4500000000000E+00  0.0000000000000E+00  0.0000000000000E+00
247  2.4600000000000E+00  0.0000000000000E+00  0.0000000000000E+00
248  2.4700000000000E+00  0.0000000000000E+00  0.0000000000000E+00
249  2.4800000000000E+00  0.0000000000000E+00  0.0000000000000E+00
250  2.4900000000000E+00  0.0000000000000E+00  0.0000000000000E+00
251  2.5000000000000E+00  0.0000000000000E+00  0.0000000000000E+00
252  2.5100000000000E+00  0.0000000000000E+00  0.0000000000000E+00
253  2.5200000000000E+00  0.0000000000000E+00  0.0000000000000E+00
254  2.5300000000000E+00  0.0000000000000E+00  0.0000000000000E+00
255  2.5400000000000E+00  0.0000000000000E+00  0.0000000000000E+00
256  2.5500000000000E+00  0.0000000000000E+00  0.0000000000000E+00
257  2.5600000000000E+00  0.0000000000000E+00  0.0000000000000E+00
258  2.5700000000000E+00  0.0000000000000E+00  0.0000000000000E+00
259  2.5800000000000E+00  0.0000000000000E+00  0.0000000000000E+00
260  2.5900000000000E+00  0.0000000000000E+00  0.0000000000000E+00
261  2.6000000000000E+00  0.0000000000000E+00  0.0000000000000E+00
262  2.6100000000000E+00  0.0000000000000E+00  0.0000000000000E+00
263  2.6200000000000E+00  0.0000000000000E+00  0.0000000000000E+00
264  2.6300000000000E+00  0.0000000000000E+00  0.0000000000000E+00
265  2.6400000000000E+00  0.0000000000000E+00  0.0000000000000E+00
266  2.6500000000000E+00  0.0000000000000E+00  0.0000000000000E+00
267  2.6600000000000E+00  0.0000000000000E+00  0.0000000000000E+00
268  2.6700000000000E+00  0.0000000000000E+00  0.0000000000000E+00
269  2.6800000000000E+00  0.0000000000000E+00  0.0000000000000E+00
270  2.6900000000000E+00  0.0000000000000E+00  0.0000000000000E+00
271  2.7000000000000E+00  0.0000000000000E+00  0.0000000000000E+00
272  2.7100000000000E+00  0.0000000000000E+00  0.0000000000000E+00
273  2.7200000000000E+00  0.0000000000000E+00  0.0000000000000E+00
274  2.7300000000000E+00  0.0000000000000E+00  0.0000000000000E+00
275  2.7400000000000E+00  0.0000000000000E+00  0.0000000000000E+00
276  2.7500000000000E+00  0.0000000000000E+00  0.0000000000000E+00
277  2.7600000000000E+00  0.0000000000000E+00  0.0000000000000E+00
278  2.7700000000000E+00  0.0000000000000E+00  0.0000000000000E+00
279  2.7800000000000E+00  0.0000000000000E+00  0.0000000000000E+00
280  2.7900000000000E+00  0.0000000000000E+00  0.0000000000000E+00
281  2.8000000000000E+00  0.0000000000000E+00  0.0000000000000E+00
282  2.8100000000000E+00  0.0000000000000E+00  0.0000000000000E+00
283  2.8200000000000E+00  0.0000000000000E+00  0.0000000000000E+00
284  2.8300000000000E+00  0.0000000000000E+00  0.0000000000000E+00
285  2.8400000000000E+00  0.0000000000000E+00  0.0000000000000E+00
286  2.8500000000000E+00  0.0000000000000E+00  0.0000000000000E+00
287  2.8600000000000E+00  0.0000000000000E+00  0.0000000000000E+00
288  2.8700000000000E+00  0.0000000000000E+00  0.0000000000000E+00
289  2.8800000000000E+00  0.0000000000000E+00  0.0000000000000E+00
290  2.8900000000000E+00  0.0000000000000E+00  0.0000000000000E+00
291  2.9000000000000E+00  0.0000000000000E+00  0.0000000000000E+00
292  2.9100000000000E+00  0.0000000000000E+00  0.0000000000000E+00
293  2.9200000000000E+00  0.0000000000000E+00  0.0000000000000E+00
294  2.9300000000000E+00  0.0000000000000E+00  0.0000000000000E+00
295  2.9400000000000E+00  0.0000000000000E+00  0.0000000000000E+00
296  2.9500000000000E+00  0.0000000000000E+00  0.0000000000000E+00
297  2.9600000000000E+00  0.0000000000000E+00  0.0000000000000E+00
298  2.9700000000000E+00  0.0000000000000E+00  0.0000000000000E+00
299  2.9800000000000E+00  0.0000000000000E+00  0.0000000000000E+00
300  2.9900000000000E+00  0.0000000000000E+00  0.0000000000000E+00
301  3.0000000000000E+00  0.0000000000000E+00  0.0000000000000E+00
302  3.0100000000000E+00  0.0000000000000E+00  0.0000000000000E+00
303  3.0200000000000E+00  0.0000000000000E+00  0.0000000000000E+00
304  3.0300000000000E+00  0.0000000000000E+00  0.0000000000000E+00
305  3.0400000000000E+00  0.0000000000000E+00  0.0000000000000E+00
306  3.0500000000000E+00  0.0000000000000E+00  0.0000000000000E+00
307  3.0600000000000E+00  0.0000000000000E+00  0.0000000000000E+00
308  3.0700000000000E+00  0.0000000000000E+00  0.0000000000000E+00
309  3.0800000000000E+00  0.0000000000000E+00  0.0000000000000E+00
310  3.0900000000000E+00  0.0000000000000E+00  0.0000000000000E+00
311  3.1000000000000E+00  0.0000000000000E+00  0.0000000000000E+00
312  3.1100000000000E+00  0.0000000000000E+00  0.0000000000000E+00
313  3.1200000000000E+00  0.0000000000000E+00  0.0000000000000E+00
314  3.1300000000000E+00  0.0000000000000E+00  0.0000000000000E+00
315  3.1400000000000E+00  0.0000000000000E+00  0.0000000000000E+00
316  3.1500000000000E+00  0.0000000000000E+00  0.0000000000000E+00
317  3.1600000000000E+00  0.0000000000000E+00  0.0000000000000E+00
318  3.1700000000000E+00  0.0000000000000E+00  0.0000000000000E+00
319  3.1800000000000E+00  0.0000000000000E+00  0.0000000000000E+00
320  3.1900000000000E+00  0.0000000000000E+00  0.0000000000000E+00
321  3.2000000000000E+00  0.0000000000000E+00  0.0000000000000E+00
322  3.2100000000000E+00  0.0000000000000E+00  0.0000000000000E+00
323  3.2200000000000E+00  0.0000000000000E+00  0.0000000000000E+00
324  3.2300000000000E+00  0.0000000000000E+00  0.0000000000000E+00
325  3.2400000000000E+00  0.0000000000000E+00  0.0000000000000E+00
326  3.2500000000000E+00  0.0000000000000E+00  0.0000000000000E+00
327  3.2600000000000E+00  0.0000000000000E+00  0.0000000000000E+00
328  3.2700000000000E+00  0.0000000000000E+00  0.0000000000000E+00
329  3.2800000000000E+00  0.0000000000000E+00  0.0000000000000E+00
330  3.2900000000000E+00  0.0000000000000E+00  0.0000000000000E+00
331  3.3000000000000E+00  0.0000000000000E+00  0.0000000000000E+00
332  3.3100000000000E+00  0.0000000000000E+00  0.0000000000000E+00
333  3.3200000000000E+00  0.0000000000000E+00  0.0000000000000E+00
334  3.3300000000000E+00  0.0000000000000E+00  0.0000000000000E+00
335  3.3400000000000E+00  0.0000000000000E+00  0.0000000000000E+00
336  3.3500000000000E+00  0.0000000000000E+00  0.0000000000000E+00
337  3.3600000000000E+00  0.0000000000000E+00  0.0000000000000E+00
338  3.3700000000000E+00  0.0000000000000E+00  0.0000000000000E+00
339  3.3800000000000E+00  0.0000000000000E+00  0.0000000000000E+00
340  3.3900000000000E+00  0.0000000000000E+00  0.0000000000000E+00
341  3.4000000000000E+00  0.0000000000000E+00  0.0000000000000E+00
342  3.4100000000000E+00  0.0000000000000E+00  0.0000000000000E+00
343  3.4200000000000E+00  0.0000000000000E+00  0.0000000000000E+00
344  3.4300000000000E+00  0.0000000000000E+00  0.0000000000000E+00
345  3.4400000000000E+00  0.0000000000000E+00  0.0000000000000E+00
346  3.4500000000000E+00  0.0000000000000E+00  0.0000000000000E+00
347  3.4600000000000E+00  0.0000000000000E+00  0.0000000000000E+00
348  3.4700000000000E+00  0.0000000000000E+00  0.0000000000000E+00
349  3.4800000000000E+00  0.0000000000000E+00  0.0000000000000E+00
350  3.4900000000000E+00  0.0000000000000E+00  0.0000000000000E+00
351  3.5000000000000E+00  0.0000000000000E+00  0.0000000000000E+00
352  3.5100000000000E+00  0.0000000000000E+00  0.0000000000000E+00
353  3.5200000000000E+00  0.0000000000000E+00  0.0000000000000E+00
354  3.5300000000000E+00  0.0000000000000E+00  0.0000000000000E+00
355  3.5400000000000E+00  0.0000000000000E+00  0.0000000000000E+00
356  3.5500000000000E+00  0.0000000000000E+00  0.0000000000000E+00
357  3.5600000000000E+00  0.0000000000000E+00  0.0000000000000E+00
358  3.5700000000000E+00  0.0000000000000E+00  0.0000000000000E+00
359  3.5800000000000E+00  0.0000000000000E+00  0.0000000000000E+00
360  3.5900000000000E+00  0.0000000000000E+00  0.0000000000000E+00
361  3.6000000000000E+00  0.0000000000000E+00  0.0000000000000E+00
362  3.6100000000000E+00  0.0000000000000E+00  0.0000000000000E+00
363  3.6200000000000E+00  0.0000000000000E+00  0.0000000000000E+00
364  3.6300000000000E+00  0.0000000000000E+00  0.0000000000000E+00
365  3.6400000000000E+00  0.0000000000000E+00  0.0000000000000E+00
366  3.6500000000000E+00  0.0000000000000E+00  0.0000000000000E+00
367  3.6600000000000E+00  0.0000000000000E+00  0.0000000000000E+00
368  3.6700000000000E+00  0.0000000000000E+00  0.0000000000000E+00
369  3.6800000000000E+00  0.0000000000000E+00  0.0000000000000E+00
370  3.6900000000000E+00  0.0000000000000E+00  0.0000000000000E+00
371  3.7000000000000E+00  0.0000000000000E+00  0.0000000000000E+00
372  3.7100000000000E+00  0.0000000000000E+00  0.0000000000000E+00
373  3.7200000000000E+00  0.0000000000000E+00  0.0000000000000E+00
374  3.7300000000000E+00  0.0000000000000E+00  0.0000000000000E+00
375  3.7400000000000E+00  0.0000000000000E+00  0.0000000000000E+00
376  3.7500000000000E+00  0.0000000000000E+00  0.0000000000000E+00
377  3.7600000000000E+00  0.0000000000000E+00  0.0000000000000E+00
378  3.7700000000000E+00  0.0000000000000E+00  0.0000000000000E+00
379  3.7800000000000E+00  0.0000000000000E+00  0.0000000000000E+00
380  3.7900000000000E+00  0.0000000000000E+00  0.0000000000000E+00
381  3.8000000000000E+00  0.0000000000000E+00  0.0000000000000E+00
382  3.8100000000000E+00  0.0000000000000E+00  0.0000000000000E+00
383  3.8200000000000E+00  0.0000000000000E+00  0.0000000000000E+00
384  3.8300000000000E+00  0.0000000000000E+00  0.0000000000000E+00
385  3.8400000000000E+00  0.0000000000000E+00  0.0000000000000E+00
386  3.8500000000000E+00  0.0000000000000E+00  0.0000000000000E+00
387  3.8600000000000E+00  0.0000000000000E+00  0.0000000000000E+00
388  3.8700000000000E+00  0.0000000000000E+00  0.0000000000000E+00
389  3.8800000000000E+00  0.0000000000000E+00  0.0000000000000E+00
390  3.8900000000000E+00  0.0000000000000E+00  0.0000000000000E+00
391  3.9000000000000E+00  0.0000000000000E+00  0.0000000000000E+00
392  3.9100000000000E+00  0.0000000000000E+00  0.0000000000000E+00
393  3.9200000000000E+00  0.0000000000000E+00  0.0000000000000E+00
394  3.9300000000000E+00  0.0000000000000E+00  0.0000000000000E+00
395  3.9400000000000E+00  0.0000000000000E+00  0.0000000000000E+00
396  3.9500000000000E+00  0.0000000000000E+00  0.0000000000000E+00
397  3.9600000000000E+00  0.0000000000000E+00  0.0000000000000E+00
398  3.9700000000000E+00  0.0000000000000E+00  0.0000000000000E+00
399  3.9800000000000E+00  0.0000000000000E+00  0.0000000000000E+00
400  3.9900000000000E+00  0.0000000000000E+00  0.0000000000000E+00
401  4.0000000000000E+00  0.0000000000000E+00  0.0000000000000E+00
402  4.0100000000000E+00  0.0000000000000E+00  0.0000000000000E+00
403  4.0200000000000E+00  0.0000000000000E+00  0.0000000000000E+00
404  4.0300000000000E+00  0.0000000000000E+00  0.0000000000000E+00
405  4.0400000000000E+00  0.0000000000000E+00  0.0000000000000E+00
406  4.0500000000000E+00  0.0000000000000E+00  0.0000000000000E+00
407  4.0600000000000E+00  0.0000000000000E+00  0.0000000000000E+00
408  4.0700000000000E+00  0.0000000000000E+00  0.0000000000000E+00
409  4.0800000000000E+00  0.0000000000000E+00  0.0000000000000E+00
410  4.0900000000000E+00  0.0000000000000E+00  0.0000000000000E+00
411  4.1000000000000E+00  0.0000000000000E+00  0.0000000000000E+00
412  4.1100000000000E+00  0.0000000000000E+00  0.0000000000000E+00
413  4.1200000000000E+00  0.0000000000000E+00  0.0000000000000E+00
414  4.1300000000000E+00  0.0000000000000E+00  0.0000000000000E+00
415  4.1400000000000E+00  0.0000000000000E+00  0.0000000000000E+00
416  4.1500000000000E+00  0.0000000000000E+00  0.0000000000000E+00
417  4.1600000000000E+00  0.0000000000000E+00  0.0000000000000E+00
418  4.1700000000000E+00  0.0000000000000E+00  0.0000000000000E+00
419  4.1800000000000E+00  0.0000000000000E+00  0.0000000000000E+00
420  4.1900000000000E+00  0.0000000000000E+00  0.0000000000000E+00
421  4.2000000000000E+00  0.0000000000000E+00  0.0000000000000E+00
422  4.2100000000000E+00  0.0000000000000E+00  0.0000000000000E+00
423  4.2200000000000E+00  0.0000000000000E+00  0.0000000000000E+00
424  4.2300000000000E+00  0.0000000000000E+00  0.0000000000000E+00
425  4.2400000000000E+00  0.0000000000000E+00  0.0000000000000E+00
426  4.2500000000000E+00  0.0000000000000E+00  0.0000000000000E+00
427  4.2600000000000E+00  0.0000000000000E+00  0.0000000000000E+00
428  4.2700000000000E+00  0.0000000000000E+00  0.0000000000000E+00
429  4.2800000000000E+00  0.0000000000000E+00  0.0000000000000E+00
430  4.2900000000000E+00  0.0000000000000E+00  0.0000000000000E+00
431  4.3000000000000E+00  0.0000000000000E+00  0.0000000000000E+00
432  4.3100000000000E+00  0.0000000000000E+00  0.0000000000000E+00
433  4.3200000000000E+00  0.0000000000000E+00  0.0000000000000E+00
434  4.3300000000000E+00  0.0000000000000E+00  0.0000000000000E+00
435  4.3400000000000E+00  0.0000000000000E+00  0.0000000000000E+00
436  4.3500000000000E+00  0.0000000000000E+00  0.0000000000000E+00
437  4.3600000000000E+00  0.0000000000000E+00  0.0000000000000E+00
438  4.3700000000000E+00  0.0000000000000E+00  0.0000000000000E+00
439  4.3800000000000E+00  0.0000000000000E+00  0.0000000000000E+00
440  4.3900000000000E+00  0.0000000000000E+00  0.0000000000000E+00
441  4.4000000000000E+00  0.0000000000000E+00  0.0000000000000E+00
442  4.4100000000000E+00  0.0000000000000E+00  0.0000000000000E+00
443  4.4200000000000E+00  0.0000000000000E+00  0.0000000000000E+00