Fe    ONCVPSP-4.0.1  r_core=   2.09643   2.09643   2.05915
     26.0000     16.0000      200312    zatom,zion,pspd
     8       2   2     4   600     0    pspcod,pspxc,lmax,lloc,mmax,r2well
  5.99000000  0.00000000  0.00000000    rchrg fchrg qchrg
     2     2     2     0     0    nproj
     1     1           extension_switch
   0                         1.8231323585397E+01 -2.3048817879911E+00
     1  0.0000000000000E+00 -2.4684221333615E-10  2.8921198769183E-11
     2  1.0000000000000E-02  7.0241166635893E-02  3.0015438815162E-02
     3  2.0000000000000E-02  1.4025114902641E-01  6.0021822118010E-02
     4  3.0000000000000E-02  2.0979985190081E-01  9.0010014470836E-02
     5  4.0000000000000E-02  2.7865935048394E-01  1.1997072139460E-01
     6  5.0000000000000E-02  3.4660495717320E-01  1.4989441186454E-01
     7  6.0000000000000E-02  4.1341626610667E-01  1.7977124320455E-01
     8  7.0000000000000E-02  4.7887816854508E-01  2.0959098914587E-01
     9  8.0000000000000E-02  5.4278183223693E-01  2.3934297178636E-01
    10  9.0000000000000E-02  6.0492563824084E-01  2.6901599815136E-01
    11  1.0000000000000E-01  6.6511606903770E-01  2.9859830201467E-01
    12  1.1000000000000E-01  7.2316854217639E-01  3.2807749159054E-01
    13  1.2000000000000E-01  7.7890818415397E-01  3.5744050365381E-01
    14  1.3000000000000E-01  8.3217053973347E-01  3.8667356458640E-01
    15  1.4000000000000E-01  8.8280221244226E-01  4.1576215878587E-01
    16  1.5000000000000E-01  9.3066143256810E-01  4.4469100480388E-01
    17  1.6000000000000E-01  9.7561854957303E-01  4.7344403951269E-01
    18  1.7000000000000E-01  1.0175564464708E+00  5.0200441052436E-01
    19  1.8000000000000E-01  1.0563708743572E+00  5.3035447701263E-01
    20  1.9000000000000E-01  1.0919707059370E+00  5.5847581901092E-01
    21  2.0000000000000E-01  1.1242781075521E+00  5.8634925518340E-01
    22  2.1000000000000E-01  1.1532286298763E+00  6.1395486898914E-01
    23  2.2000000000000E-01  1.1787712180926E+00  6.4127204308369E-01
    24  2.3000000000000E-01  1.2008681430149E+00  6.6827950172820E-01
    25  2.4000000000000E-01  1.2194948552362E+00  6.9495536090418E-01
    26  2.5000000000000E-01  1.2346397649844E+00  7.2127718576285E-01
    27  2.6000000000000E-01  1.2463039509405E+00  7.4722205497275E-01
    28  2.7000000000000E-01  1.2545008018070E+00  7.7276663146759E-01
    29  2.8000000000000E-01  1.2592555949144E+00  7.9788723903984E-01
    30  2.9000000000000E-01  1.2606050166061E+00  8.2255994417429E-01
    31  3.0000000000000E-01  1.2585966295498E+00  8.4676064246969E-01
    32  3.1000000000000E-01  1.2532882924801E+00  8.7046514895735E-01
    33  3.2000000000000E-01  1.2447475381794E+00  8.9364929159229E-01
    34  3.3000000000000E-01  1.2330509157492E+00  9.1628900716610E-01
    35  3.4000000000000E-01  1.2182833034142E+00  9.3836043887140E-01
    36  3.5000000000000E-01  1.2005371982289E+00  9.5984003473552E-01
    37  3.6000000000000E-01  1.1799119891236E+00  9.8070464613598E-01
    38  3.7000000000000E-01  1.1565132197365E+00  1.0009316256128E+00
    39  3.8000000000000E-01  1.1304518474216E+00  1.0204989232019E+00
    40  3.9000000000000E-01  1.1018435047154E+00  1.0393851805311E+00
    41  4.0000000000000E-01  1.0708077693678E+00  1.0575698219429E+00
    42  4.1000000000000E-01  1.0374674488225E+00  1.0750331419396E+00
    43  4.2000000000000E-01  1.0019478847467E+00  1.0917563882818E+00
    44  4.3000000000000E-01  9.6437628288518E-01  1.1077218401151E+00
    45  4.4000000000000E-01  9.2488107312951E-01  1.1229128805482E+00
    46  4.5000000000000E-01  8.8359130428015E-01  1.1373140631563E+00
    47  4.6000000000000E-01  8.4063607751490E-01  1.1509111719469E+00
    48  4.7000000000000E-01  7.9614402208746E-01  1.1636912743816E+00
    49  4.8000000000000E-01  7.5024281625776E-01  1.1756427671161E+00
    50  4.9000000000000E-01  7.0305875591128E-01  1.1867554141886E+00
    51  5.0000000000000E-01  6.5471637276174E-01  1.1970203774555E+00
    52  5.1000000000000E-01  6.0533810345750E-01  1.2064302391461E+00
    53  5.2000000000000E-01  5.5504401033046E-01  1.2149790164815E+00
    54  5.3000000000000E-01  5.0395155394517E-01  1.2226621683716E+00
    55  5.4000000000000E-01  4.5217541702987E-01  1.2294765942806E+00
    56  5.5000000000000E-01  3.9982737880625E-01  1.2354206254178E+00
    57  5.6000000000000E-01  3.4701623818662E-01  1.2404940084817E+00
    58  5.7000000000000E-01  2.9384778378181E-01  1.2446978822472E+00
    59  5.8000000000000E-01  2.4042480816507E-01  1.2480347473531E+00
    60  5.9000000000000E-01  1.8684716337162E-01  1.2505084297001E+00
    61  6.0000000000000E-01  1.3321185418542E-01  1.2521240379266E+00
    62  6.1000000000000E-01  7.9613165378662E-02  1.2528879154763E+00
    63  6.2000000000000E-01  2.6142818726864E-02  1.2528075878166E+00
    64  6.3000000000000E-01 -2.7109844668169E-02  1.2518917054019E+00
    65  6.4000000000000E-01 -8.0057661457830E-02  1.2501499830085E+00
    66  6.5000000000000E-01 -1.3261542742430E-01  1.2475931360914E+00
    67  6.6000000000000E-01 -1.8469966818367E-01  1.2442328148314E+00
    68  6.7000000000000E-01 -2.3622840431506E-01  1.2400815365515E+00
    69  6.8000000000000E-01 -2.8712091603207E-01  1.2351526171849E+00
    70  6.9000000000000E-01 -3.3729751247100E-01  1.2294601024737E+00
    71  7.0000000000000E-01 -3.8667931056996E-01  1.2230186995688E+00
    72  7.1000000000000E-01 -4.3518802835708E-01  1.2158437096801E+00
    73  7.2000000000000E-01 -4.8274579725506E-01  1.2079509624079E+00
    74  7.3000000000000E-01 -5.2927499774537E-01  1.1993567523513E+00
    75  7.4000000000000E-01 -5.7469812242195E-01  1.1900777785553E+00
    76  7.5000000000000E-01 -6.1893767010397E-01  1.1801310873168E+00
    77  7.6000000000000E-01 -6.6191607427428E-01  1.1695340188209E+00
    78  7.7000000000000E-01 -7.0355566866810E-01  1.1583041580269E+00
    79  7.8000000000000E-01 -7.4377869236025E-01  1.1464592901690E+00
    80  7.9000000000000E-01 -7.8250733619455E-01  1.1340173611746E+00
    81  8.0000000000000E-01 -8.1966383186940E-01  1.1209964432411E+00
    82  8.1000000000000E-01 -8.5517058444567E-01  1.1074147057464E+00
    83  8.2000000000000E-01 -8.8895034848349E-01  1.0932903916026E+00
    84  8.3000000000000E-01 -9.2092644744646E-01  1.0786417990923E+00
    85  8.4000000000000E-01 -9.5102303544451E-01  1.0634872691604E+00
    86  8.5000000000000E-01 -9.7916539982330E-01  1.0478451780653E+00
    87  8.6000000000000E-01 -1.0052803025565E+00  1.0317339352293E+00
    88  8.7000000000000E-01 -1.0292963578627E+00  1.0151719860577E+00
    89  8.8000000000000E-01 -1.0511444429568E+00  9.9817781944146E-01
    90  8.9000000000000E-01 -1.0707581383619E+00  9.8076997959274E-01
    91  9.0000000000000E-01 -1.0880741937579E+00  9.6296708181049E-01
    92  9.1000000000000E-01 -1.1030330149325E+00  9.4478783172256E-01
    93  9.2000000000000E-01 -1.1155791670295E+00  9.2625104750399E-01
    94  9.3000000000000E-01 -1.1256618889733E+00  9.0737568453128E-01
    95  9.4000000000000E-01 -1.1332356136724E+00  8.8818086189833E-01
    96  9.5000000000000E-01 -1.1382604883966E+00  8.6868589019108E-01
    97  9.6000000000000E-01 -1.1407028895581E+00  8.4891029989714E-01
    98  9.7000000000000E-01 -1.1405359260321E+00  8.2887386981143E-01
    99  9.8000000000000E-01 -1.1377399251115E+00  8.0859665479211E-01
   100  9.9000000000000E-01 -1.1323028952173E+00  7.8809901222030E-01
   101  1.0000000000000E+00 -1.1242209595672E+00  7.6740162652445E-01
   102  1.0100000000000E+00 -1.1134987551579E+00  7.4652553114418E-01
   103  1.0200000000000E+00 -1.1001497916200E+00  7.2549212733010E-01
   104  1.0300000000000E+00 -1.0841967647768E+00  7.0432319920398E-01
   105  1.0400000000000E+00 -1.0656718200591E+00  6.8304092453911E-01
   106  1.0500000000000E+00 -1.0446167613127E+00  6.6166788076166E-01
   107  1.0600000000000E+00 -1.0210832009601E+00  6.4022704572150E-01
   108  1.0700000000000E+00 -9.9513264796248E-01  6.1874179283361E-01
   109  1.0800000000000E+00 -9.6683653054550E-01  5.9723588024946E-01
   110  1.0900000000000E+00 -9.3627615121264E-01  5.7573343377986E-01
   111  1.1000000000000E+00 -9.0354257216496E-01  5.5425892335728E-01
   112  1.1100000000000E+00 -8.6873642986370E-01  5.3283713289520E-01
   113  1.1200000000000E+00 -8.3196767811624E-01  5.1149312347380E-01
   114  1.1300000000000E+00 -7.9335525972249E-01  4.9025218985558E-01
   115  1.1400000000000E+00 -7.5302670738597E-01  4.6913981040893E-01
   116  1.1500000000000E+00 -7.1111767526298E-01  4.4818159059329E-01
   117  1.1600000000000E+00 -6.6777140318916E-01  4.2740320023405E-01
   118  1.1700000000000E+00 -6.2313811627700E-01  4.0683030488876E-01
   119  1.1800000000000E+00 -5.7737436321739E-01  3.8648849167804E-01
   120  1.1900000000000E+00 -5.3064229723105E-01  3.6640319002283E-01
   121  1.2000000000000E+00 -4.8310890420306E-01  3.4659958779544E-01
   122  1.2100000000000E+00 -4.3494518308129E-01  3.2710254345242E-01
   123  1.2200000000000E+00 -3.8632528412930E-01  3.0793649477399E-01
   124  1.2300000000000E+00 -3.3742561108574E-01  2.8912536488517E-01
   125  1.2400000000000E+00 -2.8842389369226E-01  2.7069246627885E-01
   126  1.2500000000000E+00 -2.3949823740762E-01  2.5266040359918E-01
   127  1.2600000000000E+00 -1.9082615741967E-01  2.3505097597483E-01
   128  1.2700000000000E+00 -1.4258360429928E-01  2.1788507971588E-01
   129  1.2800000000000E+00 -9.4943988806127E-02  2.0118261220394E-01
   130  1.2900000000000E+00 -4.8077213454554E-02  1.8496237781387E-01
   131  1.3000000000000E+00 -2.1487184757979E-03  1.6924199670534E-01
   132  1.3100000000000E+00  4.2681450228074E-02  1.5403781731463E-01
   133  1.3200000000000E+00  8.6259543656370E-02  1.3936483336128E-01
   134  1.3300000000000E+00  1.2843897550656E-01  1.2523660615940E-01
   135  1.3400000000000E+00  1.6908114414657E-01  1.1166519299199E-01
   136  1.3500000000000E+00  2.0805620403032E-01  9.8661082266182E-02
   137  1.3600000000000E+00  2.4524378020573E-01  8.6233136120470E-02
   138  1.3700000000000E+00  2.8053362000846E-01  7.4388541100603E-02
   139  1.3800000000000E+00  3.1382617653490E-01  6.3132767459983E-02
   140  1.3900000000000E+00  3.4503311904149E-01  5.2469537573600E-02
   141  1.4000000000000E+00  3.7407776601880E-01  4.2400803882366E-02
   142  1.4100000000000E+00  4.0089543733310E-01  3.2926736707602E-02
   143  1.4200000000000E+00  4.2543372251082E-01  2.4045722194236E-02
   144  1.4300000000000E+00  4.4765266295218E-01  1.5754370556848E-02
   145  1.4400000000000E+00  4.6752484659728E-01  8.0475347156282E-03
   146  1.4500000000000E+00  4.8503541432218E-01  9.1833932041399E-04
   147  1.4600000000000E+00  5.0018197810511E-01 -5.6417799285754E-03
   148  1.4700000000000E+00  5.1297445177361E-01 -1.1643026844861E-02
   149  1.4800000000000E+00  5.2343479590471E-01 -1.7097185475062E-02
   150  1.4900000000000E+00  5.3159667920441E-01 -2.2017551331396E-02
   151  1.5000000000000E+00  5.3750505942676E-01 -2.6418853580257E-02
   152  1.5100000000000E+00  5.4121568760305E-01 -3.0317168711506E-02
   153  1.5200000000000E+00  5.4279454002912E-01 -3.3729826290766E-02
   154  1.5300000000000E+00  5.4231718309728E-01 -3.6675307469714E-02
   155  1.5400000000000E+00  5.3986807665659E-01 -3.9173136996873E-02
   156  1.5500000000000E+00  5.3553982212747E-01 -4.1243769532134E-02
   157  1.5600000000000E+00  5.2943236208786E-01 -4.2908471122681E-02
   158  1.5700000000000E+00  5.2165213847580E-01 -4.4189196744626E-02
   159  1.5800000000000E+00  5.1231121691912E-01 -4.5108464853693E-02
   160  1.5900000000000E+00  5.0152638499872E-01 -4.5689229918937E-02
   161  1.6000000000000E+00  4.8941823247815E-01 -4.5954753935519E-02
   162  1.6100000000000E+00  4.7611022168424E-01 -4.5928477925699E-02
   163  1.6200000000000E+00  4.6172775630120E-01 -4.5633894441468E-02
   164  1.6300000000000E+00  4.4639725684258E-01 -4.5094422077145E-02
   165  1.6400000000000E+00  4.3024525099087E-01 -4.4333282986291E-02
   166  1.6500000000000E+00  4.1339748684566E-01 -4.3373384374124E-02
   167  1.6600000000000E+00  3.9597807689727E-01 -4.2237204904721E-02
   168  1.6700000000000E+00  3.7810868024751E-01 -4.0946686921759E-02
   169  1.6800000000000E+00  3.5990773023413E-01 -3.9523135332777E-02
   170  1.6900000000000E+00  3.4148971418442E-01 -3.7987123950376E-02
   171  1.7000000000000E+00  3.2296451153087E-01 -3.6358410019921E-02
   172  1.7100000000000E+00  3.0443679597096E-01 -3.4655857592655E-02
   173  1.7200000000000E+00  2.8600550675066E-01 -3.2897370326431E-02
   174  1.7300000000000E+00  2.6776339350208E-01 -3.1099834214173E-02
   175  1.7400000000000E+00  2.4979663837570E-01 -2.9279070653371E-02
   176  1.7500000000000E+00  2.3218455848427E-01 -2.7449800179345E-02
   177  1.7600000000000E+00  2.1499939092401E-01 -2.5625617091295E-02
   178  1.7700000000000E+00  1.9830616186875E-01 -2.3818975104512E-02
   179  1.7800000000000E+00  1.8216264044827E-01 -2.2041184064950E-02
   180  1.7900000000000E+00  1.6661937733365E-01 -2.0302417665045E-02
   181  1.8000000000000E+00  1.5171982716591E-01 -1.8611732002852E-02
   182  1.8100000000000E+00  1.3750055318721E-01 -1.6977094731157E-02
   183  1.8200000000000E+00  1.2399151167411E-01 -1.5405424450270E-02
   184  1.8300000000000E+00  1.1121641303693E-01 -1.3902639908392E-02
   185  1.8400000000000E+00  9.9193156176703E-02 -1.2473718537251E-02
   186  1.8500000000000E+00  8.7934330070306E-02 -1.1122763546297E-02
   187  1.8600000000000E+00  7.7447776099686E-02 -9.8530787384834E-03
   188  1.8700000000000E+00  6.7737212909607E-02 -8.6672511698546E-03
   189  1.8800000000000E+00  5.8802817527041E-02 -7.5672293570750E-03
   190  1.8900000000000E+00  5.0639614554930E-02 -6.5541503342339E-03
   191  1.9000000000000E+00  4.3235605836180E-02 -5.6281354805847E-03
   192  1.9100000000000E+00  3.6571883622478E-02 -4.7883130456251E-03
   193  1.9200000000000E+00  3.0623472076355E-02 -4.0329243799203E-03
   194  1.9300000000000E+00  2.5360042193530E-02 -3.3594160079397E-03
   195  1.9400000000000E+00  2.0746668636266E-02 -2.7645366720970E-03
   196  1.9500000000000E+00  1.6744591430310E-02 -2.2444350142092E-03
   197  1.9600000000000E+00  1.3311977316751E-02 -1.7947569679376E-03
   198  1.9700000000000E+00  1.0404623968943E-02 -1.4107388272713E-03
   199  1.9800000000000E+00  7.9768325073837E-03 -1.0873100378784E-03
   200  1.9900000000000E+00  5.9818110107117E-03 -8.1916253202646E-04
   201  2.0000000000000E+00  4.3692779564183E-03 -6.0065268262622E-04
   202  2.0100000000000E+00  3.0881706477699E-03 -4.2601862632878E-04
   203  2.0200000000000E+00  2.0962660729780E-03 -2.9000796542274E-04
   204  2.0300000000000E+00  1.3521948662118E-03 -1.8740051283416E-04
   205  2.0400000000000E+00  8.1592623119982E-04 -1.1307340626424E-04
   206  2.0500000000000E+00  4.4930984399297E-04 -6.2065533385388E-05
   207  2.0600000000000E+00  2.1645527977967E-04 -2.9626350612181E-05
   208  2.0700000000000E+00  8.4055957132369E-05 -1.1257991852508E-05
   209  2.0800000000000E+00  2.1643358611282E-05 -2.7510869518057E-06
   210  2.0900000000000E+00  1.9325355120486E-06 -1.9786957578080E-07
   211  2.1000000000000E+00 -1.1378569525369E-07  4.4506961439179E-09
   212  2.1100000000000E+00  2.3809741774318E-08 -2.3055286819040E-09
   213  2.12  0. -0.
   214  2.13 -0.  0.
   215  2.14 -0.  0.
   216  2.15  0.  0.
   217  2.16  0.  0.
   218  2.17  0.  0.
   219  2.18  0.  0.
   220  2.19  0.  0.
   221  2.20  0.  0.
   222  2.21  0.  0.
   223  2.22  0.  0.
   224  2.23  0.  0.
   225  2.24  0.  0.
   226  2.25  0.  0.
   227  2.26  0.  0.
   228  2.27  0.  0.
   229  2.28  0.  0.
   230  2.29  0.  0.
   231  2.30  0.  0.
   232  2.31  0.  0.
   233  2.32  0.  0.
   234  2.33  0.  0.
   235  2.34  0.  0.
   236  2.35  0.  0.
   237  2.36  0.  0.
   238  2.37  0.  0.
   239  2.38  0.  0.
   240  2.39  0.  0.
   241  2.40  0.  0.
   242  2.41  0.  0.
   243  2.42  0.  0.
   244  2.43  0.  0.
   245  2.44  0.  0.
   246  2.45  0.  0.
   247  2.46  0.  0.
   248  2.47  0.  0.
   249  2.48  0.  0.
   250  2.49  0.  0.
   251  2.50  0.  0.
   252  2.51  0.  0.
   253  2.52  0.  0.
   254  2.53  0.  0.
   255  2.54  0.  0.
   256  2.55  0.  0.
   257  2.56  0.  0.
   258  2.57  0.  0.
   259  2.58  0.  0.
   260  2.59  0.  0.
   261  2.60  0.  0.
   262  2.61  0.  0.
   263  2.62  0.  0.
   264  2.63  0.  0.
   265  2.64  0.  0.
   266  2.65  0.  0.
   267  2.66  0.  0.
   268  2.67  0.  0.
   269  2.68  0.  0.
   270  2.69  0.  0.
   271  2.70  0.  0.
   272  2.71  0.  0.
   273  2.72  0.  0.
   274  2.73  0.  0.
   275  2.74  0.  0.
   276  2.75  0.  0.
   277  2.76  0.  0.
   278  2.77  0.  0.
   279  2.78  0.  0.
   280  2.79  0.  0.
   281  2.80  0.  0.
   282  2.81  0.  0.
   283  2.82  0.  0.
   284  2.83  0.  0.
   285  2.84  0.  0.
   286  2.85  0.  0.
   287  2.86  0.  0.
   288  2.87  0.  0.
   289  2.88  0.  0.
   290  2.89  0.  0.
   291  2.90  0.  0.
   292  2.91  0.  0.
   293  2.92  0.  0.
   294  2.93  0.  0.
   295  2.94  0.  0.
   296  2.95  0.  0.
   297  2.96  0.  0.
   298  2.97  0.  0.
   299  2.98  0.  0.
   300  2.99  0.  0.
   301  3.00  0.  0.
   302  3.01  0.  0.
   303  3.02  0.  0.
   304  3.03  0.  0.
   305  3.04  0.  0.
   306  3.05  0.  0.
   307  3.06  0.  0.
   308  3.07  0.  0.
   309  3.08  0.  0.
   310  3.09  0.  0.
   311  3.10  0.  0.
   312  3.11  0.  0.
   313  3.12  0.  0.
   314  3.13  0.  0.
   315  3.14  0.  0.
   316  3.15  0.  0.
   317  3.16  0.  0.
   318  3.17  0.  0.
   319  3.18  0.  0.
   320  3.19  0.  0.
   321  3.20  0.  0.
   322  3.21  0.  0.
   323  3.22  0.  0.
   324  3.23  0.  0.
   325  3.24  0.  0.
   326  3.25  0.  0.
   327  3.26  0.  0.
   328  3.27  0.  0.
   329  3.28  0.  0.
   330  3.29  0.  0.
   331  3.30  0.  0.
   332  3.31  0.  0.
   333  3.32  0.  0.
   334  3.33  0.  0.
   335  3.34  0.  0.
   336  3.35  0.  0.
   337  3.36  0.  0.
   338  3.37  0.  0.
   339  3.38  0.  0.
   340  3.39  0.  0.
   341  3.40  0.  0.
   342  3.41  0.  0.
   343  3.42  0.  0.
   344  3.43  0.  0.
   345  3.44  0.  0.
   346  3.45  0.  0.
   347  3.46  0.  0.
   348  3.47  0.  0.
   349  3.48  0.  0.
   350  3.49  0.  0.
   351  3.50  0.  0.
   352  3.51  0.  0.
   353  3.52  0.  0.
   354  3.53  0.  0.
   355  3.54  0.  0.
   356  3.55  0.  0.
   357  3.56  0.  0.
   358  3.57  0.  0.
   359  3.58  0.  0.
   360  3.59  0.  0.
   361  3.60  0.  0.
   362  3.61  0.  0.
   363  3.62  0.  0.
   364  3.63  0.  0.
   365  3.64  0.  0.
   366  3.65  0.  0.
   367  3.66  0.  0.
   368  3.67  0.  0.
   369  3.68  0.  0.
   370  3.69  0.  0.
   371  3.70  0.  0.
   372  3.71  0.  0.
   373  3.72  0.  0.
   374  3.73  0.  0.
   375  3.74  0.  0.
   376  3.75  0.  0.
   377  3.76  0.  0.
   378  3.77  0.  0.
   379  3.78  0.  0.
   380  3.79  0.  0.
   381  3.80  0.  0.
   382  3.81  0.  0.
   383  3.82  0.  0.
   384  3.83  0.  0.
   385  3.84  0.  0.
   386  3.85  0.  0.
   387  3.86  0.  0.
   388  3.87  0.  0.
   389  3.88  0.  0.
   390  3.89  0.  0.
   391  3.90  0.  0.
   392  3.91  0.  0.
   393  3.92  0.  0.
   394  3.93  0.  0.
   395  3.94  0.  0.
   396  3.95  0.  0.
   397  3.96  0.  0.
   398  3.97  0.  0.
   399  3.98  0.  0.
   400  3.99  0.  0.
   401  4.00  0.  0.
   402  4.01  0.  0.
   403  4.02  0.  0.
   404  4.03  0.  0.
   405  4.04  0.  0.
   406  4.05  0.  0.
   407  4.06  0.  0.
   408  4.07  0.  0.
   409  4.08  0.  0.
   410  4.09  0.  0.
   411  4.10  0.  0.
   412  4.11  0.  0.
   413  4.12  0.  0.
   414  4.13  0.  0.
   415  4.14  0.  0.
   416  4.15  0.  0.
   417  4.16  0.  0.
   418  4.17  0.  0.
   419  4.18  0.  0.
   420  4.19  0.  0.
   421  4.20  0.  0.
   422  4.21  0.  0.
   423  4.22  0.  0.
   424  4.23  0.  0.
   425  4.24  0.  0.
   426  4.25  0.  0.
   427  4.26  0.  0.
   428  4.27  0.  0.
   429  4.28  0.  0.
   430  4.29  0.  0.
   431  4.30  0.  0.
   432  4.31  0.  0.
   433  4.32  0.  0.
   434  4.33  0.  0.
   435  4.34  0.  0.
   436  4.35  0.  0.
   437  4.36  0.  0.
   438  4.37  0.  0.
   439  4.38  0.  0.
   440  4.39  0.  0.
   441  4.40  0.  0.
   442  4.41  0.  0.
   443  4.42  0.  0.
   444  4.43  0.  0.
   445  4.44  0.  0.
   446  4.45  0.  0.
   447  4.46  0.  0.
   448  4.47  0.  0.
   449  4.48  0.  0.
   450  4.49  0.  0.
   451  4.50  0.  0.
   452  4.51  0.  0.
   453  4.52  0.  0.
   454  4.53  0.  0.
   455  4.54  0.  0.
   456  4.55  0.  0.
   457  4.56  0.  0.
   458  4.57  0.  0.
   459  4.58  0.  0.
   460  4.59  0.  0.
   461  4.60  0.  0.
   462  4.61  0.  0.
   463  4.62  0.  0.
   464  4.63  0.  0.
   465  4.64  0.  0.
   466  4.65  0.  0.
   467  4.66  0.  0.
   468  4.67  0.  0.
   469  4.68  0.  0.
   470  4.69  0.  0.
   471  4.70  0.  0.
   472  4.71  0.  0.
   473  4.72  0.  0.
   474  4.73  0.  0.
   475  4.74  0.  0.
   476  4.75  0.  0.
   477  4.76  0.  0.
   478  4.77  0.  0.
   479  4.78  0.  0.
   480  4.79  0.  0.
   481  4.80  0.  0.
   482  4.81  0.  0.
   483  4.82  0.  0.
   484  4.83  0.  0.
   485  4.84  0.  0.
   486  4.85  0.  0.
   487  4.86  0.  0.
   488  4.87  0.  0.
   489  4.88  0.  0.
   490  4.89  0.  0.
   491  4.90  0.  0.
   492  4.91  0.  0.
   493  4.92  0.  0.
   494  4.93  0.  0.
   495  4.94  0.  0.
   496  4.95  0.  0.
   497  4.96  0.  0.
   498  4.97  0.  0.
   499  4.98  0.  0.
   500  4.99  0.  0.
   501  5.00  0.  0.
   502  5.01  0.  0.
   503  5.02  0.  0.
   504  5.03  0.  0.
   505  5.04  0.  0.
   506  5.05  0.  0.
   507  5.06  0.  0.
   508  5.07  0.  0.
   509  5.08  0.  0.
   510  5.09  0.  0.
   511  5.10  0.  0.
   512  5.11  0.  0.
   513  5.12  0.  0.
   514  5.13  0.  0.
   515  5.14  0.  0.
   516  5.15  0.  0.
   517  5.16  0.  0.
   518  5.17  0.  0.
   519  5.18  0.  0.
   520  5.19  0.  0.
   521  5.20  0.  0.
   522  5.21  0.  0.
   523  5.22  0.  0.
   524  5.23  0.  0.
   525  5.24  0.  0.
   526  5.25  0.  0.
   527  5.26  0.  0.
   528  5.27  0.  0.
   529  5.28  0.  0.
   530  5.29  0.  0.
   531  5.30  0.  0.
   532  5.31  0.  0.
   533  5.32  0.  0.
   534  5.33  0.  0.
   535  5.34  0.  0.
   536  5.35  0.  0.
   537  5.36  0.  0.
   538  5.37  0.  0.
   539  5.38  0.  0.
   540  5.39  0.  0.
   541  5.40  0.  0.
   542  5.41  0.  0.
   543  5.42  0.  0.
   544  5.43  0.  0.
   545  5.44  0.  0.
   546  5.45  0.  0.
   547  5.46  0.  0.
   548  5.47  0.  0.
   549  5.48  0.  0.
   550  5.49  0.  0.
   551  5.50  0.  0.
   552  5.51  0.  0.
   553  5.52  0.  0.
   554  5.53  0.  0.
   555  5.54  0.  0.
   556  5.55  0.  0.
   557  5.56  0.  0.
   558  5.57  0.  0.
   559  5.58  0.  0.
   560  5.59  0.  0.
   561  5.60  0.  0.
   562  5.61  0.  0.
   563  5.62  0.  0.
   564  5.63  0.  0.
   565  5.64  0.  0.
   566  5.65  0.  0.
   567  5.66  0.  0.
   568  5.67  0.  0.
   569  5.68  0.  0.
   570  5.69  0.  0.
   571  5.70  0.  0.
   572  5.71  0.  0.
   573  5.72  0.  0.
   574  5.73  0.  0.
   575  5.74  0.  0.
   576  5.75  0.  0.
   577  5.76  0.  0.
   578  5.77  0.  0.
   579  5.78  0.  0.
   580  5.79  0.  0.
   581  5.80  0.  0.
   582  5.81  0.  0.
   583  5.82  0.  0.
   584  5.83  0.  0.
   585  5.84  0.  0.
   586  5.85  0.  0.
   587  5.86  0.  0.
   588  5.87  0.  0.
   589  5.88  0.  0.
   590  5.89  0.  0.
   591  5.90  0.  0.
   592  5.91  0.  0.
   593  5.92  0.  0.
   594  5.93  0.  0.
   595  5.94  0.  0.
   596  5.95  0.  0.
   597  5.96  0.  0.
   598  5.97  0.  0.
   599  5.98  0.  0.
   600  5.99  0.  0.
   1                        -4.5814554644305E+00 -1.3530841932501E+00
     1  0.0000000000000E+00  1.7675816366136E-10 -6.0139411506288E-10
     2  1.0000000000000E-02  1.0736985588078E-03 -9.1176347618337E-04
     3  2.0000000000000E-02  4.2913450850460E-03 -3.6414678955732E-03
     4  3.0000000000000E-02  9.6426067950289E-03 -8.1723926795215E-03
     5  4.0000000000000E-02  1.7110311177048E-02 -1.4476794699110E-02
     6  5.0000000000000E-02  2.6670518850952E-02 -2.2516093886125E-02
     7  6.0000000000000E-02  3.8292624910461E-02 -3.2241130816051E-02
     8  7.0000000000000E-02  5.1939488094271E-02 -4.3592494018748E-02
     9  8.0000000000000E-02  6.7567586955240E-02 -5.6500914171082E-02
    10  9.0000000000000E-02  8.5127202027650E-02 -7.0887721753493E-02
    11  1.0000000000000E-01  1.0456262283216E-01 -8.6665364215360E-02
    12  1.1000000000000E-01  1.2581237840800E-01 -1.0373797819744E-01
    13  1.2000000000000E-01  1.4880948992351E-01 -1.2200201190845E-01
    14  1.3000000000000E-01  1.7348174379052E-01 -1.4134689235208E-01
    15  1.4000000000000E-01  1.9975198359627E-01 -1.6165573175325E-01
    16  1.5000000000000E-01  2.2753841906931E-01 -1.8280606724354E-01
    17  1.6000000000000E-01  2.5675495021465E-01 -2.0467062763550E-01
    18  1.7000000000000E-01  2.8731150468725E-01 -2.2711812094907E-01
    19  1.8000000000000E-01  3.1911438642471E-01 -2.5001403624929E-01
    20  1.9000000000000E-01  3.5206663352682E-01 -2.7322145331591E-01
    21  2.0000000000000E-01  3.8606838335508E-01 -2.9660185369053E-01
    22  2.1000000000000E-01  4.2101724282571E-01 -3.2001592673620E-01
    23  2.2000000000000E-01  4.5680866188816E-01 -3.4332436449598E-01
    24  2.3000000000000E-01  4.9333630821443E-01 -3.6638863934909E-01
    25  2.4000000000000E-01  5.3049244117409E-01 -3.8907175873246E-01
    26  2.5000000000000E-01  5.6816828323389E-01 -4.1123899152026E-01
    27  2.6000000000000E-01  6.0625438699864E-01 -4.3275856102793E-01
    28  2.7000000000000E-01  6.4464099620109E-01 -4.5350230002833E-01
    29  2.8000000000000E-01  6.8321839905076E-01 -4.7334626362912E-01
    30  2.9000000000000E-01  7.2187727246478E-01 -4.9217129635842E-01
    31  3.0000000000000E-01  7.6050901582593E-01 -5.0986355033337E-01
    32  3.1000000000000E-01  7.9900607304284E-01 -5.2631495193795E-01
    33  3.2000000000000E-01  8.3726224182334E-01 -5.4142361500632E-01
    34  3.3000000000000E-01  8.7517296921274E-01 -5.5509419908850E-01
    35  3.4000000000000E-01  9.1263563259269E-01 -5.6723821196131E-01
    36  3.5000000000000E-01  9.4954980548161E-01 -5.7777425613141E-01
    37  3.6000000000000E-01  9.8581750762324E-01 -5.8662821965299E-01
    38  3.7000000000000E-01  1.0213434389935E+00 -5.9373341214400E-01
    39  3.8000000000000E-01  1.0560351974968E+00 -5.9903064742498E-01
    40  3.9000000000000E-01  1.0898034802587E+00 -6.0246827471806E-01
    41  4.0000000000000E-01  1.1225622685534E+00 -6.0400216082525E-01
    42  4.1000000000000E-01  1.1542289965251E+00 -6.0359562614838E-01
    43  4.2000000000000E-01  1.1847247039802E+00 -6.0121933781479E-01
    44  4.3000000000000E-01  1.2139741736294E+00 -5.9685116352753E-01
    45  4.4000000000000E-01  1.2419060532557E+00 -5.9047599006373E-01
    46  4.5000000000000E-01  1.2684529633660E+00 -5.8208551059577E-01
    47  4.6000000000000E-01  1.2935515909577E+00 -5.7167798520614E-01
    48  4.7000000000000E-01  1.3171427700872E+00 -5.5925797910437E-01
    49  4.8000000000000E-01  1.3391715499775E+00 -5.4483608313440E-01
    50  4.9000000000000E-01  1.3595872514324E+00 -5.2842862118087E-01
    51  5.0000000000000E-01  1.3783435123448E+00 -5.1005734904467E-01
    52  5.1000000000000E-01  1.3953983230957E+00 -4.8974914926186E-01
    53  5.2000000000000E-01  1.4107140526327E+00 -4.6753572618775E-01
    54  5.3000000000000E-01  1.4242574660004E+00 -4.4345330546195E-01
    55  5.4000000000000E-01  1.4359997340632E+00 -4.1754234171307E-01
    56  5.5000000000000E-01  1.4459164361245E+00 -3.8984723805751E-01
    57  5.6000000000000E-01  1.4539875560905E+00 -3.6041608059929E-01
    58  5.7000000000000E-01  1.4601974727710E+00 -3.2930039075193E-01
    59  5.8000000000000E-01  1.4645349448403E+00 -2.9655489778349E-01
    60  5.9000000000000E-01  1.4669930909051E+00 -2.6223733353910E-01
    61  6.0000000000000E-01  1.4675693650496E+00 -2.2640825082486E-01
    62  6.1000000000000E-01  1.4662655281391E+00 -1.8913086645212E-01
    63  6.2000000000000E-01  1.4630876150797E+00 -1.5047092944522E-01
    64  6.3000000000000E-01  1.4580458981407E+00 -1.1049661441757E-01
    65  6.4000000000000E-01  1.4511548463582E+00 -6.9278439625093E-02
    66  6.5000000000000E-01  1.4424330809508E+00 -2.6889208720528E-02
    67  6.6000000000000E-01  1.4319033265943E+00  1.6596025237957E-02
    68  6.7000000000000E-01  1.4195923583213E+00  6.1099975417959E-02
    69  6.8000000000000E-01  1.4055309437377E+00  1.0654311879767E-01
    70  6.9000000000000E-01  1.3897537801786E+00  1.5284367840404E-01
    71  7.0000000000000E-01  1.3722994263695E+00  1.9991759325119E-01
    72  7.1000000000000E-01  1.3532102281031E+00  2.4767847932923E-01
    73  7.2000000000000E-01  1.3325322374073E+00  2.9603758524942E-01
    74  7.3000000000000E-01  1.3103151246430E+00  3.4490374635557E-01
    75  7.4000000000000E-01  1.2866120829591E+00  3.9418334126093E-01
    76  7.5000000000000E-01  1.2614797245211E+00  4.4378025486239E-01
    77  7.6000000000000E-01  1.2349779679368E+00  4.9359585191732E-01
    78  7.7000000000000E-01  1.2071699163238E+00  5.4352896524221E-01
    79  7.8000000000000E-01  1.1781217254928E+00  5.9347590250623E-01
    80  7.9000000000000E-01  1.1479024617664E+00  6.4333047544680E-01
    81  8.0000000000000E-01  1.1165839490103E+00  6.9298405512986E-01
    82  8.1000000000000E-01  1.0842406045210E+00  7.4232565661674E-01
    83  8.2000000000000E-01  1.0509492634982E+00  7.9124205608438E-01
    84  8.3000000000000E-01  1.0167889919158E+00  8.3961794307995E-01
    85  8.4000000000000E-01  9.8184088771097E-01  8.8733611017859E-01
    86  8.5000000000000E-01  9.4618787031741E-01  9.3427768185775E-01
    87  8.6000000000000E-01  9.0991445868705E-01  9.8032238391006E-01
    88  8.7000000000000E-01  8.7310653806698E-01  1.0253488541927E+00
    89  8.8000000000000E-01  8.3585111592718E-01  1.0692349949620E+00
    90  8.9000000000000E-01  7.9823606756564E-01  1.1118583664739E+00
    91  9.0000000000000E-01  7.6034987205100E-01  1.1530966209500E+00
    92  9.1000000000000E-01  7.2228133929642E-01  1.1928279754213E+00
    93  9.2000000000000E-01  6.8411932919046E-01  1.2309317213799E+00