Fe    ONCVPSP-3.3.1  r_core=   2.08667   2.13706   2.06193
     26.0000     16.0000      190723    zatom,zion,pspd
     8      11   2     4   600     0    pspcod,pspxc,lmax,lloc,mmax,r2well
  5.99000000  0.00000000  0.00000000    rchrg fchrg qchrg
     2     2     2     0     0    nproj
     1     1           extension_switch
   0                        -4.9010927979126E+01 -2.3355636499608E+00
     1  0.0000000000000E+00  6.6019911759696E-11 -8.8096474559762E-12
     2  1.0000000000000E-02  5.8502343606320E-02  3.1134047082009E-02
     3  2.0000000000000E-02  1.1688313432926E-01  6.2246584417699E-02
     4  3.0000000000000E-02  1.7502090922203E-01  9.3316141086133E-02
     5  4.0000000000000E-02  2.3279438672126E-01  1.2432132354839E-01
     6  5.0000000000000E-02  2.9008256109747E-01  1.5524085366892E-01
     7  6.0000000000000E-02  3.4676480136904E-01  1.8605360593959E-01
     8  7.0000000000000E-02  4.0272095608937E-01  2.1673864365102E-01
     9  8.0000000000000E-02  4.5783146535103E-01  2.4727525376470E-01
    10  9.0000000000000E-02  5.1197748126902E-01  2.7764298025015E-01
    11  1.0000000000000E-01  5.6504099810869E-01  3.0782165566421E-01
    12  1.1000000000000E-01  6.1690499311356E-01  3.3779143076470E-01
    13  1.2000000000000E-01  6.6745357896429E-01  3.6753280196656E-01
    14  1.3000000000000E-01  7.1657216866427E-01  3.9702663646744E-01
    15  1.4000000000000E-01  7.6414765350024E-01  4.2625419488902E-01
    16  1.5000000000000E-01  8.1006859456933E-01  4.5519715130146E-01
    17  1.6000000000000E-01  8.5422542819848E-01  4.8383761052086E-01
    18  1.7000000000000E-01  8.9651068540941E-01  5.1215812259252E-01
    19  1.8000000000000E-01  9.3681922540354E-01  5.4014169439728E-01
    20  1.9000000000000E-01  9.7504848285836E-01  5.6777179834274E-01
    21  2.0000000000000E-01  1.0110987286410E+00  5.9503237812660E-01
    22  2.1000000000000E-01  1.0448733433575E+00  6.2190785158457E-01
    23  2.2000000000000E-01  1.0762791029698E+00  6.4838311066130E-01
    24  2.3000000000000E-01  1.1052264755266E+00  6.7444351856766E-01
    25  2.4000000000000E-01  1.1316299278750E+00  7.0007490421319E-01
    26  2.5000000000000E-01  1.1554082410405E+00  7.2526355402692E-01
    27  2.6000000000000E-01  1.1764848327959E+00  7.4999620130331E-01
    28  2.7000000000000E-01  1.1947880857770E+00  7.7426001323335E-01
    29  2.8000000000000E-01  1.2102516793500E+00  7.9804257580202E-01
    30  2.9000000000000E-01  1.2228149232966E+00  8.2133187675415E-01
    31  3.0000000000000E-01  1.2324230912535E+00  8.4411628684929E-01
    32  3.1000000000000E-01  1.2390277517258E+00  8.6638453964360E-01
    33  3.2000000000000E-01  1.2425870943982E+00  8.8812571005234E-01
    34  3.3000000000000E-01  1.2430662493790E+00  9.0932919195968E-01
    35  3.4000000000000E-01  1.2404375969473E+00  9.2998467515447E-01
    36  3.5000000000000E-01  1.2346810653228E+00  9.5008212187953E-01
    37  3.6000000000000E-01  1.2257844139470E+00  9.6961174328927E-01
    38  3.7000000000000E-01  1.2137434997513E+00  9.8856397611489E-01
    39  3.8000000000000E-01  1.1985625238955E+00  1.0069294598390E+00
    40  3.9000000000000E-01  1.1802542564862E+00  1.0246990146807E+00
    41  4.0000000000000E-01  1.1588402368333E+00  1.0418636206908E+00
    42  4.1000000000000E-01  1.1343509468658E+00  1.0584143982493E+00
    43  4.2000000000000E-01  1.1068259554203E+00  1.0743425902525E+00
    44  4.3000000000000E-01  1.0763140312171E+00  1.0896395462648E+00
    45  4.4000000000000E-01  1.0428732224668E+00  1.1042967088990E+00
    46  4.5000000000000E-01  1.0065709011942E+00  1.1183056026730E+00
    47  4.6000000000000E-01  9.6748377052815E-01  1.1316578255748E+00
    48  4.7000000000000E-01  9.2569783338602E-01  1.1443450435483E+00
    49  4.8000000000000E-01  8.8130832117498E-01  1.1563589880897E+00
    50  4.9000000000000E-01  8.3441958134542E-01  1.1676914571232E+00
    51  5.0000000000000E-01  7.8514492285401E-01  1.1783343192988E+00
    52  5.1000000000000E-01  7.3360641883111E-01  1.1882795218274E+00
    53  5.2000000000000E-01  6.7993466599520E-01  1.1975191019431E+00
    54  5.3000000000000E-01  6.2426850061359E-01  1.2060452020503E+00
    55  5.4000000000000E-01  5.6675467107376E-01  1.2138500885865E+00
    56  5.5000000000000E-01  5.0754746740042E-01  1.2209261745967E+00
    57  5.6000000000000E-01  4.4680830832831E-01  1.2272660459883E+00
    58  5.7000000000000E-01  3.8470528681879E-01  1.2328624913993E+00
    59  5.8000000000000E-01  3.2141267518563E-01  1.2377085355836E+00
    60  5.9000000000000E-01  2.5711039127250E-01  1.2417974761839E+00
    61  6.0000000000000E-01  1.9198342739776E-01  1.2451229237313E+00
    62  6.1000000000000E-01  1.2622124405024E-01  1.2476788446800E+00
    63  6.2000000000000E-01  6.0017130580105E-02  1.2494596072550E+00
    64  6.3000000000000E-01 -6.4324646186841E-03  1.2504600298629E+00
    65  6.4000000000000E-01 -7.2928631698122E-02  1.2506754317857E+00
    66  6.5000000000000E-01 -1.3927072175320E-01  1.2501016858533E+00
    67  6.6000000000000E-01 -2.0525709084863E-01  1.2487352727656E+00
    68  6.7000000000000E-01 -2.7068586230022E-01  1.2465733367120E+00
    69  6.8000000000000E-01 -3.3535570365708E-01  1.2436137419146E+00
    70  6.9000000000000E-01 -3.9906661467036E-01  1.2398551297063E+00
    71  7.0000000000000E-01 -4.6162072239534E-01  1.2352969757362E+00
    72  7.1000000000000E-01 -5.2282307945693E-01  1.2299396468823E+00
    73  7.2000000000000E-01 -5.8248246141310E-01  1.2237844574435E+00
    74  7.3000000000000E-01 -6.4041215908194E-01  1.2168337241722E+00
    75  7.4000000000000E-01 -6.9643076165171E-01  1.2090908197064E+00
    76  7.5000000000000E-01 -7.5036292637399E-01  1.2005602239580E+00
    77  7.6000000000000E-01 -8.0204013064588E-01  1.1912475730164E+00
    78  7.7000000000000E-01 -8.5130140231930E-01  1.1811597051306E+00
    79  7.8000000000000E-01 -8.9799402413529E-01  1.1703047033416E+00
    80  7.9000000000000E-01 -9.4197420826550E-01  1.1586919343470E+00
    81  8.0000000000000E-01 -9.8310773705527E-01  1.1463320831959E+00
    82  8.1000000000000E-01 -1.0212705661999E+00  1.1332371834279E+00
    83  8.2000000000000E-01 -1.0563493867485E+00  1.1194206422903E+00
    84  8.3000000000000E-01 -1.0882421425166E+00  1.1048972606926E+00
    85  8.4000000000000E-01 -1.1168584997001E+00  1.0896832475812E+00
    86  8.5000000000000E-01 -1.1421202657166E+00  1.0737962284472E+00
    87  8.6000000000000E-01 -1.1639617545530E+00  1.0572552477114E+00
    88  8.7000000000000E-01 -1.1823300961759E+00  1.0400807647624E+00
    89  8.8000000000000E-01 -1.1971854878508E+00  1.0222946434623E+00
    90  8.9000000000000E-01 -1.2085013855274E+00  1.0039201349680E+00
    91  9.0000000000000E-01 -1.2162646337728E+00  9.8498185375913E-01
    92  9.1000000000000E-01 -1.2204755330694E+00  9.6550574680028E-01
    93  9.2000000000000E-01 -1.2211478436433E+00  9.4551905581064E-01
    94  9.3000000000000E-01 -1.2183087253477E+00  9.2505027265343E-01
    95  9.4000000000000E-01 -1.2119986134826E+00  9.0412908790265E-01
    96  9.5000000000000E-01 -1.2022710308068E+00  8.8278633268741E-01
    97  9.6000000000000E-01 -1.1891923363594E+00  8.6105391395752E-01
    98  9.7000000000000E-01 -1.1728414120856E+00  8.3896474335792E-01
    99  9.8000000000000E-01 -1.1533092886139E+00  8.1655265994114E-01
   100  9.9000000000000E-01 -1.1306987119049E+00  7.9385234698977E-01
   101  1.0000000000000E+00 -1.1051236528365E+00  7.7089924326137E-01
   102  1.0100000000000E+00 -1.0767087621349E+00  7.4772944900730E-01
   103  1.0200000000000E+00 -1.0455887733898E+00  7.2437962715476E-01
   104  1.0300000000000E+00 -1.0119078572076E+00  7.0088690007670E-01
   105  1.0400000000000E+00 -9.7581892986220E-01  6.7728874240862E-01
   106  1.0500000000000E+00 -9.3748292006092E-01  6.5362287039949E-01
   107  1.0600000000000E+00 -8.9706799773208E-01  6.2992712831586E-01
   108  1.0700000000000E+00 -8.5474876895618E-01  6.0623937244056E-01
   109  1.0800000000000E+00 -8.1070544138085E-01  5.8259735323065E-01
   110  1.0900000000000E+00 -7.6512296465294E-01  5.5903859621824E-01
   111  1.1000000000000E+00 -7.1819015053998E-01  5.3560028225144E-01
   112  1.1100000000000E+00 -6.7009877757355E-01  5.1231912768689E-01
   113  1.1200000000000E+00 -6.2104268512683E-01  4.8923126515136E-01
   114  1.1300000000000E+00 -5.7121686191729E-01  4.6637212549414E-01
   115  1.1400000000000E+00 -5.2081653396288E-01  4.4377632155278E-01
   116  1.1500000000000E+00 -4.7003625703793E-01  4.2147753435105E-01
   117  1.1600000000000E+00 -4.1906901864717E-01  3.9950840234021E-01
   118  1.1700000000000E+00 -3.6810535446723E-01  3.7790041428046E-01
   119  1.1800000000000E+00 -3.1733248415725E-01  3.5668380635012E-01
   120  1.1900000000000E+00 -2.6693347129418E-01  3.3588746404539E-01
   121  1.2000000000000E+00 -2.1708641204404E-01  3.1553882941137E-01
   122  1.2100000000000E+00 -1.6796365699685E-01  2.9566381411750E-01
   123  1.2200000000000E+00 -1.1973107045738E-01  2.7628671886975E-01
   124  1.2300000000000E+00 -7.2547331157067E-02  2.5743015960509E-01
   125  1.2400000000000E+00 -2.6563278080180E-02  2.3911500087569E-01
   126  1.2500000000000E+00  1.8078694973791E-02  2.2136029681977E-01
   127  1.2600000000000E+00  6.1245193044297E-02  2.0418324003633E-01
   128  1.2700000000000E+00  1.0281231909127E-01  1.8759911864672E-01
   129  1.2800000000000E+00  1.4266611581256E-01  1.7162128181201E-01
   130  1.2900000000000E+00  1.8070294819016E-01  1.5626111388277E-01
   131  1.3000000000000E+00  2.1682982510362E-01  1.4152801731274E-01
   132  1.3100000000000E+00  2.5096465831928E-01  1.2742940447125E-01
   133  1.3200000000000E+00  2.8303645810932E-01  1.1397069836393E-01
   134  1.3300000000000E+00  3.1298546498188E-01  1.0115534224320E-01
   135  1.3400000000000E+00  3.4076321693469E-01  8.8984818097328E-02
   136  1.3500000000000E+00  3.6633255289726E-01  7.7458673845065E-02
   137  1.3600000000000E+00  3.8966755278709E-01  6.6574559094666E-02
   138  1.3700000000000E+00  4.1075341499506E-01  5.6328269274485E-02
   139  1.3800000000000E+00  4.2958627318535E-01  4.6713797807443E-02
   140  1.3900000000000E+00  4.4617295367522E-01  3.7723396079890E-02
   141  1.4000000000000E+00  4.6053067582907E-01  2.9347640807174E-02
   142  1.4100000000000E+00  4.7268669811305E-01  2.1575508374151E-02
   143  1.4200000000000E+00  4.8267791212136E-01  1.4394455767898E-02
   144  1.4300000000000E+00  4.9055038844169E-01  7.7905075301764E-03
   145  1.4400000000000E+00  4.9635887720769E-01  1.7483482818117E-03
   146  1.4500000000000E+00  5.0016626739589E-01 -3.7485797769463E-03
   147  1.4600000000000E+00  5.0204300886866E-01 -8.7179749745455E-03
   148  1.4700000000000E+00  5.0206650102642E-01 -1.3178570458809E-02
   149  1.4800000000000E+00  5.0032045297721E-01 -1.7150025357367E-02
   150  1.4900000000000E+00  4.9689421921828E-01 -2.0652813397464E-02
   151  1.5000000000000E+00  4.9188211598270E-01 -2.3708109697417E-02
   152  1.5100000000000E+00  4.8538272269731E-01 -2.6337676364465E-02
   153  1.5200000000000E+00  4.7749817362176E-01 -2.8563747603798E-02
   154  1.5300000000000E+00  4.6833344435548E-01 -3.0408914983654E-02
   155  1.5400000000000E+00  4.5799563835894E-01 -3.1896013577819E-02
   156  1.5500000000000E+00  4.4659327790973E-01 -3.3048009573093E-02
   157  1.5600000000000E+00  4.3423560491174E-01 -3.3887890103192E-02
   158  1.5700000000000E+00  4.2103189543451E-01 -3.4438555809713E-02
   159  1.5800000000000E+00  4.0709079344184E-01 -3.4722716889910E-02
   160  1.5900000000000E+00  3.9251966720866E-01 -3.4762793079250E-02
   161  1.6000000000000E+00  3.7742399344177E-01 -3.4580818254468E-02
   162  1.6100000000000E+00  3.6190677245956E-01 -3.4198350087858E-02
   163  1.6200000000000E+00  3.4606797858069E-01 -3.3636385307899E-02
   164  1.6300000000000E+00  3.3000404908816E-01 -3.2915281000376E-02
   165  1.6400000000000E+00  3.1380741474257E-01 -3.2054682335045E-02
   166  1.6500000000000E+00  2.9756607528994E-01 -3.1073457163246E-02
   167  1.6600000000000E+00  2.8136322157890E-01 -2.9989637679855E-02
   168  1.6700000000000E+00  2.6527690777326E-01 -2.8820369599568E-02
   169  1.6800000000000E+00  2.4937977388333E-01 -2.7581868847943E-02
   170  1.6900000000000E+00  2.3373882198577E-01 -2.6289386199264E-02
   171  1.7000000000000E+00  2.1841524509288E-01 -2.4957179688851E-02
   172  1.7100000000000E+00  2.0346431164741E-01 -2.3598495175607E-02
   173  1.7200000000000E+00  1.8893530362933E-01 -2.2225554750694E-02
   174  1.7300000000000E+00  1.7487151047118E-01 -2.0849553259465E-02
   175  1.7400000000000E+00  1.6131027622259E-01 -1.9480662560032E-02
   176  1.7500000000000E+00  1.4828310091641E-01 -1.8128043614818E-02
   177  1.7600000000000E+00  1.3581579355662E-01 -1.6799866037128E-02
   178  1.7700000000000E+00  1.2392867595427E-01 -1.5503334954870E-02
   179  1.7800000000000E+00  1.1263683535131E-01 -1.4244724884101E-02
   180  1.7900000000000E+00  1.0195042293459E-01 -1.3029420189366E-02
   181  1.8000000000000E+00  9.1874997127498E-02 -1.1861961949610E-02
   182  1.8100000000000E+00  8.2411908543509E-02 -1.0746100750086E-02
   183  1.8200000000000E+00  7.3558721785131E-02 -9.6848547892609E-03
   184  1.8300000000000E+00  6.5309642550225E-02 -8.6805694101393E-03
   185  1.8400000000000E+00  5.7656141841722E-02 -7.7350009410515E-03
   186  1.8500000000000E+00  5.0587099125591E-02 -6.8493435207485E-03
   187  1.8600000000000E+00  4.4089646556987E-02 -6.0243407322992E-03
   188  1.8700000000000E+00  3.8150367448209E-02 -5.2604391707618E-03
   189  1.8800000000000E+00  3.2754591265535E-02 -4.5577158347455E-03
   190  1.8900000000000E+00  2.7885798505992E-02 -3.9158193474158E-03
   191  1.9000000000000E+00  2.3525205329731E-02 -3.3339308661178E-03
   192  1.9100000000000E+00  1.9651087319384E-02 -2.8106927991560E-03
   193  1.9200000000000E+00  1.6238293553687E-02 -2.3441605264657E-03
   194  1.9300000000000E+00  1.3259292931931E-02 -1.9319366320658E-03
   195  1.9400000000000E+00  1.0685021511304E-02 -1.5712805576745E-03
   196  1.9500000000000E+00  8.4849427647018E-03 -1.2591256253212E-03
   197  1.9600000000000E+00  6.6276558263165E-03 -9.9216060229895E-04
   198  1.9700000000000E+00  5.0813074640251E-03 -7.6688773834784E-04
   199  1.9800000000000E+00  3.8139945443931E-03 -5.7967940550223E-04
   200  1.9900000000000E+00  2.7941496648937E-03 -4.2683234995692E-04
   201  2.0000000000000E+00  1.9908889496312E-03 -3.0461693495470E-04
   202  2.0100000000000E+00  1.3743320025230E-03 -2.0932269218155E-04
   203  2.0200000000000E+00  9.1596702217882E-04 -1.3729455165574E-04
   204  2.0300000000000E+00  5.8856359654758E-04 -8.4981470367389E-05
   205  2.0400000000000E+00  3.6627791667608E-04 -4.8940217059138E-05
   206  2.0500000000000E+00  2.2565998296002E-04 -2.5873631629296E-05
   207  2.0600000000000E+00  1.4801928622255E-04 -1.2742585773398E-05
   208  2.0700000000000E+00  1.1759103884466E-04 -6.8177213716787E-06
   209  2.0800000000000E+00  1.0557676541008E-04 -4.7913308119752E-06
   210  2.0900000000000E+00  8.4634258617805E-05 -3.7083904610596E-06
   211  2.1000000000000E+00  4.4661675155028E-05 -1.9911085515149E-06
   212  2.1100000000000E+00  5.4173965627645E-06 -2.5024456253518E-07
   213  2.1200000000000E+00 -9.4444270462348E-06  3.9225080555938E-07
   214  2.1300000000000E+00 -6.4917645102056E-06  2.7088323476225E-07
   215  2.1400000000000E+00  9.2555552683626E-07 -3.5071562180252E-08
   216  2.1500000000000E+00  2.1376866438207E-06 -8.0177371686785E-08
   217  2.1600000000000E+00  6.2737616964491E-07 -2.3334862004263E-08
   218  2.1700000000000E+00 -2.2349687917818E-07  9.8525942499301E-09
   219  2.1800000000000E+00 -2.2540035938418E-07  9.9365069121624E-09
   220  2.1900000000000E+00  0.0000000000000E+00  0.0000000000000E+00
   221  2.2000000000000E+00  0.0000000000000E+00  0.0000000000000E+00
   222  2.2100000000000E+00  0.0000000000000E+00  0.0000000000000E+00
   223  2.2200000000000E+00  0.0000000000000E+00  0.0000000000000E+00
   224  2.2300000000000E+00  0.0000000000000E+00  0.0000000000000E+00
   225  2.2400000000000E+00  0.0000000000000E+00  0.0000000000000E+00
   226  2.2500000000000E+00  0.0000000000000E+00  0.0000000000000E+00
   227  2.2600000000000E+00  0.0000000000000E+00  0.0000000000000E+00
   228  2.2700000000000E+00  0.0000000000000E+00  0.0000000000000E+00
   229  2.2800000000000E+00  0.0000000000000E+00  0.0000000000000E+00
   230  2.2900000000000E+00  0.0000000000000E+00  0.0000000000000E+00
   231  2.3000000000000E+00  0.0000000000000E+00  0.0000000000000E+00
   232  2.3100000000000E+00  0.0000000000000E+00  0.0000000000000E+00
   233  2.3200000000000E+00  0.0000000000000E+00  0.0000000000000E+00
   234  2.3300000000000E+00  0.0000000000000E+00  0.0000000000000E+00
   235  2.3400000000000E+00  0.0000000000000E+00  0.0000000000000E+00
   236  2.3500000000000E+00  0.0000000000000E+00  0.0000000000000E+00
   237  2.3600000000000E+00  0.0000000000000E+00  0.0000000000000E+00
   238  2.3700000000000E+00  0.0000000000000E+00  0.0000000000000E+00
   239  2.3800000000000E+00  0.0000000000000E+00  0.0000000000000E+00
   240  2.3900000000000E+00  0.0000000000000E+00  0.0000000000000E+00
   241  2.4000000000000E+00  0.0000000000000E+00  0.0000000000000E+00
   242  2.4100000000000E+00  0.0000000000000E+00  0.0000000000000E+00
   243  2.4200000000000E+00  0.0000000000000E+00  0.0000000000000E+00
   244  2.4300000000000E+00  0.0000000000000E+00  0.0000000000000E+00
   245  2.4400000000000E+00  0.0000000000000E+00  0.0000000000000E+00
   246  2.4500000000000E+00  0.0000000000000E+00  0.0000000000000E+00
   247  2.4600000000000E+00  0.0000000000000E+00  0.0000000000000E+00
   248  2.4700000000000E+00  0.0000000000000E+00  0.0000000000000E+00
   249  2.4800000000000E+00  0.0000000000000E+00  0.0000000000000E+00
   250  2.4900000000000E+00  0.0000000000000E+00  0.0000000000000E+00
   251  2.5000000000000E+00  0.0000000000000E+00  0.0000000000000E+00
   252  2.5100000000000E+00  0.0000000000000E+00  0.0000000000000E+00
   253  2.5200000000000E+00  0.0000000000000E+00  0.0000000000000E+00
   254  2.5300000000000E+00  0.0000000000000E+00  0.0000000000000E+00
   255  2.5400000000000E+00  0.0000000000000E+00  0.0000000000000E+00
   256  2.5500000000000E+00  0.0000000000000E+00  0.0000000000000E+00
   257  2.5600000000000E+00  0.0000000000000E+00  0.0000000000000E+00
   258  2.5700000000000E+00  0.0000000000000E+00  0.0000000000000E+00
   259  2.5800000000000E+00  0.0000000000000E+00  0.0000000000000E+00
   260  2.5900000000000E+00  0.0000000000000E+00  0.0000000000000E+00
   261  2.6000000000000E+00  0.0000000000000E+00  0.0000000000000E+00
   262  2.6100000000000E+00  0.0000000000000E+00  0.0000000000000E+00
   263  2.6200000000000E+00  0.0000000000000E+00  0.0000000000000E+00
   264  2.6300000000000E+00  0.0000000000000E+00  0.0000000000000E+00
   265  2.6400000000000E+00  0.0000000000000E+00  0.0000000000000E+00
   266  2.6500000000000E+00  0.0000000000000E+00  0.0000000000000E+00
   267  2.6600000000000E+00  0.0000000000000E+00  0.0000000000000E+00
   268  2.6700000000000E+00  0.0000000000000E+00  0.0000000000000E+00
   269  2.6800000000000E+00  0.0000000000000E+00  0.0000000000000E+00
   270  2.6900000000000E+00  0.0000000000000E+00  0.0000000000000E+00
   271  2.7000000000000E+00  0.0000000000000E+00  0.0000000000000E+00
   272  2.7100000000000E+00  0.0000000000000E+00  0.0000000000000E+00
   273  2.7200000000000E+00  0.0000000000000E+00  0.0000000000000E+00
   274  2.7300000000000E+00  0.0000000000000E+00  0.0000000000000E+00
   275  2.7400000000000E+00  0.0000000000000E+00  0.0000000000000E+00
   276  2.7500000000000E+00  0.0000000000000E+00  0.0000000000000E+00
   277  2.7600000000000E+00  0.0000000000000E+00  0.0000000000000E+00
   278  2.7700000000000E+00  0.0000000000000E+00  0.0000000000000E+00
   279  2.7800000000000E+00  0.0000000000000E+00  0.0000000000000E+00
   280  2.7900000000000E+00  0.0000000000000E+00  0.0000000000000E+00
   281  2.8000000000000E+00  0.0000000000000E+00  0.0000000000000E+00
   282  2.8100000000000E+00  0.0000000000000E+00  0.0000000000000E+00
   283  2.8200000000000E+00  0.0000000000000E+00  0.0000000000000E+00
   284  2.8300000000000E+00  0.0000000000000E+00  0.0000000000000E+00
   285  2.8400000000000E+00  0.0000000000000E+00  0.0000000000000E+00
   286  2.8500000000000E+00  0.0000000000000E+00  0.0000000000000E+00
   287  2.8600000000000E+00  0.0000000000000E+00  0.0000000000000E+00
   288  2.8700000000000E+00  0.0000000000000E+00  0.0000000000000E+00
   289  2.8800000000000E+00  0.0000000000000E+00  0.0000000000000E+00
   290  2.8900000000000E+00  0.0000000000000E+00  0.0000000000000E+00
   291  2.9000000000000E+00  0.0000000000000E+00  0.0000000000000E+00
   292  2.9100000000000E+00  0.0000000000000E+00  0.0000000000000E+00
   293  2.9200000000000E+00  0.0000000000000E+00  0.0000000000000E+00
   294  2.9300000000000E+00  0.0000000000000E+00  0.0000000000000E+00
   295  2.9400000000000E+00  0.0000000000000E+00  0.0000000000000E+00
   296  2.9500000000000E+00  0.0000000000000E+00  0.0000000000000E+00
   297  2.9600000000000E+00  0.0000000000000E+00  0.0000000000000E+00
   298  2.9700000000000E+00  0.0000000000000E+00  0.0000000000000E+00
   299  2.9800000000000E+00  0.0000000000000E+00  0.0000000000000E+00
   300  2.9900000000000E+00  0.0000000000000E+00  0.0000000000000E+00
   301  3.0000000000000E+00  0.0000000000000E+00  0.0000000000000E+00
   302  3.0100000000000E+00  0.0000000000000E+00  0.0000000000000E+00
   303  3.0200000000000E+00  0.0000000000000E+00  0.0000000000000E+00
   304  3.0300000000000E+00  0.0000000000000E+00  0.0000000000000E+00
   305  3.0400000000000E+00  0.0000000000000E+00  0.0000000000000E+00
   306  3.0500000000000E+00  0.0000000000000E+00  0.0000000000000E+00
   307  3.0600000000000E+00  0.0000000000000E+00  0.0000000000000E+00
   308  3.0700000000000E+00  0.0000000000000E+00  0.0000000000000E+00
   309  3.0800000000000E+00  0.0000000000000E+00  0.0000000000000E+00
   310  3.0900000000000E+00  0.0000000000000E+00  0.0000000000000E+00
   311  3.1000000000000E+00  0.0000000000000E+00  0.0000000000000E+00
   312  3.1100000000000E+00  0.0000000000000E+00  0.0000000000000E+00
   313  3.1200000000000E+00  0.0000000000000E+00  0.0000000000000E+00
   314  3.1300000000000E+00  0.0000000000000E+00  0.0000000000000E+00
   315  3.1400000000000E+00  0.0000000000000E+00  0.0000000000000E+00
   316  3.1500000000000E+00  0.0000000000000E+00  0.0000000000000E+00
   317  3.1600000000000E+00  0.0000000000000E+00  0.0000000000000E+00
   318  3.1700000000000E+00  0.0000000000000E+00  0.0000000000000E+00
   319  3.1800000000000E+00  0.0000000000000E+00  0.0000000000000E+00
   320  3.1900000000000E+00  0.0000000000000E+00  0.0000000000000E+00
   321  3.2000000000000E+00  0.0000000000000E+00  0.0000000000000E+00
   322  3.2100000000000E+00  0.0000000000000E+00  0.0000000000000E+00
   323  3.2200000000000E+00  0.0000000000000E+00  0.0000000000000E+00
   324  3.2300000000000E+00  0.0000000000000E+00  0.0000000000000E+00
   325  3.2400000000000E+00  0.0000000000000E+00  0.0000000000000E+00
   326  3.2500000000000E+00  0.0000000000000E+00  0.0000000000000E+00
   327  3.2600000000000E+00  0.0000000000000E+00  0.0000000000000E+00
   328  3.2700000000000E+00  0.0000000000000E+00  0.0000000000000E+00
   329  3.2800000000000E+00  0.0000000000000E+00  0.0000000000000E+00
   330  3.2900000000000E+00  0.0000000000000E+00  0.0000000000000E+00
   331  3.3000000000000E+00  0.0000000000000E+00  0.0000000000000E+00
   332  3.3100000000000E+00  0.0000000000000E+00  0.0000000000000E+00
   333  3.3200000000000E+00  0.0000000000000E+00  0.0000000000000E+00
   334  3.3300000000000E+00  0.0000000000000E+00  0.0000000000000E+00
   335  3.3400000000000E+00  0.0000000000000E+00  0.0000000000000E+00
   336  3.3500000000000E+00  0.0000000000000E+00  0.0000000000000E+00
   337  3.3600000000000E+00  0.0000000000000E+00  0.0000000000000E+00
   338  3.3700000000000E+00  0.0000000000000E+00  0.0000000000000E+00
   339  3.3800000000000E+00  0.0000000000000E+00  0.0000000000000E+00
   340  3.3900000000000E+00  0.0000000000000E+00  0.0000000000000E+00
   341  3.4000000000000E+00  0.0000000000000E+00  0.0000000000000E+00
   342  3.4100000000000E+00  0.0000000000000E+00  0.0000000000000E+00
   343  3.4200000000000E+00  0.0000000000000E+00  0.0000000000000E+00
   344  3.4300000000000E+00  0.0000000000000E+00  0.0000000000000E+00
   345  3.4400000000000E+00  0.0000000000000E+00  0.0000000000000E+00
   346  3.4500000000000E+00  0.0000000000000E+00  0.0000000000000E+00
   347  3.4600000000000E+00  0.0000000000000E+00  0.0000000000000E+00
   348  3.4700000000000E+00  0.0000000000000E+00  0.0000000000000E+00
   349  3.4800000000000E+00  0.0000000000000E+00  0.0000000000000E+00
   350  3.4900000000000E+00  0.0000000000000E+00  0.0000000000000E+00
   351  3.5000000000000E+00  0.0000000000000E+00  0.0000000000000E+00
   352  3.5100000000000E+00  0.0000000000000E+00  0.0000000000000E+00
   353  3.5200000000000E+00  0.0000000000000E+00  0.0000000000000E+00
   354  3.5300000000000E+00  0.0000000000000E+00  0.0000000000000E+00
   355  3.5400000000000E+00  0.0000000000000E+00  0.0000000000000E+00
   356  3.5500000000000E+00  0.0000000000000E+00  0.0000000000000E+00
   357  3.5600000000000E+00  0.0000000000000E+00  0.0000000000000E+00
   358  3.5700000000000E+00  0.0000000000000E+00  0.0000000000000E+00
   359  3.5800000000000E+00  0.0000000000000E+00  0.0000000000000E+00
   360  3.5900000000000E+00  0.0000000000000E+00  0.0000000000000E+00
   361  3.6000000000000E+00  0.0000000000000E+00  0.0000000000000E+00
   362  3.6100000000000E+00  0.0000000000000E+00  0.0000000000000E+00
   363  3.6200000000000E+00  0.0000000000000E+00  0.0000000000000E+00
   364  3.6300000000000E+00  0.0000000000000E+00  0.0000000000000E+00
   365  3.6400000000000E+00  0.0000000000000E+00  0.0000000000000E+00
   366  3.6500000000000E+00  0.0000000000000E+00  0.0000000000000E+00
   367  3.6600000000000E+00  0.0000000000000E+00  0.0000000000000E+00
   368  3.6700000000000E+00  0.0000000000000E+00  0.0000000000000E+00
   369  3.6800000000000E+00  0.0000000000000E+00  0.0000000000000E+00
   370  3.6900000000000E+00  0.0000000000000E+00  0.0000000000000E+00
   371  3.7000000000000E+00  0.0000000000000E+00  0.0000000000000E+00
   372  3.7100000000000E+00  0.0000000000000E+00  0.0000000000000E+00
   373  3.7200000000000E+00  0.0000000000000E+00  0.0000000000000E+00
   374  3.7300000000000E+00  0.0000000000000E+00  0.0000000000000E+00
   375  3.7400000000000E+00  0.0000000000000E+00  0.0000000000000E+00
   376  3.7500000000000E+00  0.0000000000000E+00  0.0000000000000E+00
   377  3.7600000000000E+00  0.0000000000000E+00  0.0000000000000E+00
   378  3.7700000000000E+00  0.0000000000000E+00  0.0000000000000E+00
   379  3.7800000000000E+00  0.0000000000000E+00  0.0000000000000E+00
   380  3.7900000000000E+00  0.0000000000000E+00  0.0000000000000E+00
   381  3.8000000000000E+00  0.0000000000000E+00  0.0000000000000E+00
   382  3.8100000000000E+00  0.0000000000000E+00  0.0000000000000E+00
   383  3.8200000000000E+00  0.0000000000000E+00  0.0000000000000E+00
   384  3.8300000000000E+00  0.0000000000000E+00  0.0000000000000E+00
   385  3.8400000000000E+00  0.0000000000000E+00  0.0000000000000E+00
   386  3.8500000000000E+00  0.0000000000000E+00  0.0000000000000E+00
   387  3.8600000000000E+00  0.0000000000000E+00  0.0000000000000E+00
   388  3.8700000000000E+00  0.0000000000000E+00  0.0000000000000E+00
   389  3.8800000000000E+00  0.0000000000000E+00  0.0000000000000E+00
   390  3.8900000000000E+00  0.0000000000000E+00  0.0000000000000E+00
   391  3.9000000000000E+00  0.0000000000000E+00  0.0000000000000E+00
   392  3.9100000000000E+00  0.0000000000000E+00  0.0000000000000E+00
   393  3.9200000000000E+00  0.0000000000000E+00  0.0000000000000E+00
   394  3.9300000000000E+00  0.0000000000000E+00  0.0000000000000E+00
   395  3.9400000000000E+00  0.0000000000000E+00  0.0000000000000E+00
   396  3.9500000000000E+00  0.0000000000000E+00  0.0000000000000E+00
   397  3.9600000000000E+00  0.0000000000000E+00  0.0000000000000E+00
   398  3.9700000000000E+00  0.0000000000000E+00  0.0000000000000E+00
   399  3.9800000000000E+00  0.0000000000000E+00  0.0000000000000E+00
   400  3.9900000000000E+00  0.0000000000000E+00  0.0000000000000E+00
   401  4.0000000000000E+00  0.0000000000000E+00  0.0000000000000E+00
   402  4.0100000000000E+00  0.0000000000000E+00  0.0000000000000E+00
   403  4.0200000000000E+00  0.0000000000000E+00  0.0000000000000E+00
   404  4.0300000000000E+00  0.0000000000000E+00  0.0000000000000E+00
   405  4.0400000000000E+00  0.0000000000000E+00  0.0000000000000E+00
   406  4.0500000000000E+00  0.0000000000000E+00  0.0000000000000E+00
   407  4.0600000000000E+00  0.0000000000000E+00  0.0000000000000E+00
   408  4.0700000000000E+00  0.0000000000000E+00  0.0000000000000E+00
   409  4.0800000000000E+00  0.0000000000000E+00  0.0000000000000E+00
   410  4.0900000000000E+00  0.0000000000000E+00  0.0000000000000E+00
   411  4.1000000000000E+00  0.0000000000000E+00  0.0000000000000E+00
   412  4.1100000000000E+00  0.0000000000000E+00  0.0000000000000E+00
   413  4.1200000000000E+00  0.0000000000000E+00  0.0000000000000E+00
   414  4.1300000000000E+00  0.0000000000000E+00  0.0000000000000E+00
   415  4.1400000000000E+00  0.0000000000000E+00  0.0000000000000E+00
   416  4.1500000000000E+00  0.0000000000000E+00  0.0000000000000E+00
   417  4.1600000000000E+00  0.0000000000000E+00  0.0000000000000E+00
   418  4.1700000000000E+00  0.0000000000000E+00  0.0000000000000E+00
   419  4.1800000000000E+00  0.0000000000000E+00  0.0000000000000E+00
   420  4.1900000000000E+00  0.0000000000000E+00  0.0000000000000E+00
   421  4.2000000000000E+00  0.0000000000000E+00  0.0000000000000E+00
   422  4.2100000000000E+00  0.0000000000000E+00  0.0000000000000E+00