Fe    ONCVPSP-4.0.1  r_core=   2.09643   2.09643   2.05915
     26.0000     16.0000      200312    zatom,zion,pspd
     8      11   2     4   600     0    pspcod,pspxc,lmax,lloc,mmax,r2well
  5.99000000  0.00000000  0.00000000    rchrg fchrg qchrg
     2     2     2     0     0    nproj
     1     1           extension_switch
   0                         1.0053054082062E+01 -2.3261218768071E+00
     1  0.0000000000000E+00 -2.5486690535814E-10  2.7053859152915E-11
     2  1.0000000000000E-02  7.0421379393949E-02  3.0691731120087E-02
     3  2.0000000000000E-02  1.4060841462676E-01  6.1372342772695E-02
     4  3.0000000000000E-02  2.1032787634050E-01  9.2030644429413E-02
     5  4.0000000000000E-02  2.7934875710506E-01  1.2265530419220E-01
     6  5.0000000000000E-02  3.4744336325101E-01  1.5323477998223E-01
     7  6.0000000000000E-02  4.1438838392708E-01  1.8375725295779E-01
     8  7.0000000000000E-02  4.7996593009251E-01  2.1421056387226E-01
     9  8.0000000000000E-02  5.4396453640903E-01  2.4458215305599E-01
    10  9.0000000000000E-02  6.0618011931203E-01  2.7485900467272E-01
    11  1.0000000000000E-01  6.6641688491101E-01  3.0502759586171E-01
    12  1.1000000000000E-01  7.2448818079358E-01  3.3507385133183E-01
    13  1.2000000000000E-01  7.8021728628003E-01  3.6498310392368E-01
    14  1.3000000000000E-01  8.3343813619353E-01  3.9474006160095E-01
    15  1.4000000000000E-01  8.8399597376898E-01  4.2432878127322E-01
    16  1.5000000000000E-01  9.3174792891628E-01  4.5373264978942E-01
    17  1.6000000000000E-01  9.7656351867637E-01  4.8293437237559E-01
    18  1.7000000000000E-01  1.0183250673548E+00  5.1191596872203E-01
    19  1.8000000000000E-01  1.0569280444811E+00  5.4065877685500E-01
    20  1.9000000000000E-01  1.0922813194201E+00  5.6914346485670E-01
    21  2.0000000000000E-01  1.1243073321404E+00  5.9735005042533E-01
    22  2.1000000000000E-01  1.1529421803299E+00  6.2525792819564E-01
    23  2.2000000000000E-01  1.1781356237196E+00  6.5284590466912E-01
    24  2.3000000000000E-01  1.1998510071422E+00  6.8009224053402E-01
    25  2.4000000000000E-01  1.2180651044927E+00  7.0697470008759E-01
    26  2.5000000000000E-01  1.2327678863777E+00  7.3347060740906E-01
    27  2.6000000000000E-01  1.2439622148288E+00  7.5955690886989E-01
    28  2.7000000000000E-01  1.2516634690101E+00  7.8521024151135E-01
    29  2.8000000000000E-01  1.2558991063588E+00  8.1040700676587E-01
    30  2.9000000000000E-01  1.2567081640718E+00  8.3512344895114E-01
    31  3.0000000000000E-01  1.2541407062648E+00  8.5933573792312E-01
    32  3.1000000000000E-01  1.2482572225028E+00  8.8302005523735E-01
    33  3.2000000000000E-01  1.2391279837070E+00  9.0615268313694E-01
    34  3.3000000000000E-01  1.2268323617006E+00  9.2871009566144E-01
    35  3.4000000000000E-01  1.2114581188462E+00  9.5066905115271E-01
    36  3.5000000000000E-01  1.1931006743597E+00  9.7200668542276E-01
    37  3.6000000000000E-01  1.1718623539546E+00  9.9270060484420E-01
    38  3.7000000000000E-01  1.1478516294764E+00  1.0127289786262E+00
    39  3.8000000000000E-01  1.1211823551298E+00  1.0320706295486E+00
    40  3.9000000000000E-01  1.0919730067841E+00  1.0507051224414E+00
    41  4.0000000000000E-01  1.0603459306644E+00  1.0686128497218E+00
    42  4.1000000000000E-01  1.0264266074996E+00  1.0857751133262E+00
    43  4.2000000000000E-01  9.9034293790779E-01  1.1021742024123E+00
    44  4.3000000000000E-01  9.5222455445585E-01  1.1177934662453E+00
    45  4.4000000000000E-01  9.1220216543855E-01  1.1326173817278E+00
    46  4.5000000000000E-01  8.7040693498717E-01  1.1466316150834E+00
    47  4.6000000000000E-01  8.2696990364061E-01  1.1598230772597E+00
    48  4.7000000000000E-01  7.8202145300250E-01  1.1721799726726E+00
    49  4.8000000000000E-01  7.3569081756665E-01  1.1836918409775E+00
    50  4.9000000000000E-01  6.8810564622936E-01  1.1943495916166E+00
    51  5.0000000000000E-01  6.3939161542417E-01  1.2041455309564E+00
    52  5.1000000000000E-01  5.8967209521907E-01  1.2130733818996E+00
    53  5.2000000000000E-01  5.3906786911520E-01  1.2211282959199E+00
    54  5.3000000000000E-01  4.8769690768283E-01  1.2283068575407E+00
    55  5.4000000000000E-01  4.3567419557560E-01  1.2346070813431E+00
    56  5.5000000000000E-01  3.8311161087735E-01  1.2400284016551E+00
    57  5.6000000000000E-01  3.3011785517040E-01  1.2445716551396E+00
    58  5.7000000000000E-01  2.7679843216922E-01  1.2482390565591E+00
    59  5.8000000000000E-01  2.2325567224794E-01  1.2510341680542E+00
    60  5.9000000000000E-01  1.6958879970977E-01  1.2529618623266E+00
    61  6.0000000000000E-01  1.1589403920224E-01  1.2540282801700E+00
    62  6.1000000000000E-01  6.2264757283433E-02  1.2542407828353E+00
    63  6.2000000000000E-01  8.7916347912435E-03  1.2536078997596E+00
    64  6.3000000000000E-01 -4.4437134634394E-02  1.2521392722218E+00
    65  6.4000000000000E-01 -9.7335624774754E-02  1.2498455935177E+00
    66  6.5000000000000E-01 -1.4981994089213E-01  1.2467385462703E+00
    67  6.6000000000000E-01 -2.0180797285171E-01  1.2428307375074E+00
    68  6.7000000000000E-01 -2.5321914260642E-01  1.2381356321483E+00
    69  6.8000000000000E-01 -3.0397415136081E-01  1.2326674855475E+00
    70  6.9000000000000E-01 -3.5399473168531E-01  1.2264412757353E+00
    71  7.0000000000000E-01 -4.0320340974798E-01  1.2194726359914E+00
    72  7.1000000000000E-01 -4.5152328266749E-01  1.2117777883669E+00
    73  7.2000000000000E-01 -4.9887781577212E-01  1.2033734787498E+00
    74  7.3000000000000E-01 -5.4519066427460E-01  1.1942769140411E+00
    75  7.4000000000000E-01 -5.9038552354753E-01  1.1845057019731E+00
    76  7.5000000000000E-01 -6.3438601180907E-01  1.1740777940634E+00
    77  7.6000000000000E-01 -6.7711558861097E-01  1.1630114321523E+00
    78  7.7000000000000E-01 -7.1849751206132E-01  1.1513250989245E+00
    79  7.8000000000000E-01 -7.5845483722109E-01  1.1390374727609E+00
    80  7.9000000000000E-01 -7.9691045758881E-01  1.1261673872110E+00
    81  8.0000000000000E-01 -8.3378719103888E-01  1.1127337953182E+00
    82  8.1000000000000E-01 -8.6900791101064E-01  1.0987557389679E+00
    83  8.2000000000000E-01 -9.0249572316462E-01  1.0842523233639E+00
    84  8.3000000000000E-01 -9.3417418713345E-01  1.0692426966803E+00
    85  8.4000000000000E-01 -9.6396758240672E-01  1.0537460348635E+00
    86  8.5000000000000E-01 -9.9180121680459E-01  1.0377815315044E+00
    87  8.6000000000000E-01 -1.0176017754236E+00  1.0213683926309E+00
    88  8.7000000000000E-01 -1.0412977073834E+00  1.0045258362141E+00
    89  8.8000000000000E-01 -1.0628196471733E+00  9.8727309612253E-01
    90  8.9000000000000E-01 -1.0821008668947E+00  9.6962943020192E-01
    91  9.0000000000000E-01 -1.0990777552313E+00  9.5161413210721E-01
    92  9.1000000000000E-01 -1.1136903185512E+00  9.3324654646627E-01
    93  9.2000000000000E-01 -1.1258826991646E+00  9.1454608691061E-01
    94  9.3000000000000E-01 -1.1356037054277E+00  8.9553225647120E-01
    95  9.4000000000000E-01 -1.1428073481054E+00  8.7622466980505E-01
    96  9.5000000000000E-01 -1.1474533771816E+00  8.5664307669182E-01
    97  9.6000000000000E-01 -1.1495078131433E+00  8.3680738621945E-01
    98  9.7000000000000E-01 -1.1489434666624E+00  8.1673769106422E-01
    99  9.8000000000000E-01 -1.1457404405590E+00  7.9645429126353E-01
   100  9.9000000000000E-01 -1.1398866079576E+00  7.7597771687942E-01
   101  1.0000000000000E+00 -1.1313780606336E+00  7.5532874895728E-01
   102  1.0100000000000E+00 -1.1202195217050E+00  7.3452843819766E-01
   103  1.0200000000000E+00 -1.1064247170369E+00  7.1359812077881E-01
   104  1.0300000000000E+00 -1.0900167000077E+00  6.9255943079415E-01
   105  1.0400000000000E+00 -1.0710281246216E+00  6.7143430880168E-01
   106  1.0500000000000E+00 -1.0495014623478E+00  6.5024500602088E-01
   107  1.0600000000000E+00 -1.0254891585117E+00  6.2901408375712E-01
   108  1.0700000000000E+00 -9.9905372456191E-01  6.0776440768302E-01
   109  1.0800000000000E+00 -9.7026776307709E-01  5.8651913666051E-01
   110  1.0900000000000E+00 -9.3921392295538E-01  5.6530170584574E-01
   111  1.1000000000000E+00 -9.0598478284798E-01  5.4413580388095E-01
   112  1.1100000000000E+00 -8.7068266153716E-01  5.2304534404256E-01
   113  1.1200000000000E+00 -8.3341935462811E-01  5.0205442928212E-01
   114  1.1300000000000E+00 -7.9431579760335E-01  4.8118731116560E-01
   115  1.1400000000000E+00 -7.5350165598080E-01  4.6046834278697E-01
   116  1.1500000000000E+00 -7.1111484400892E-01  4.3992192580180E-01
   117  1.1600000000000E+00 -6.6730097402296E-01  4.1957245179678E-01
   118  1.1700000000000E+00 -6.2221273926328E-01  3.9944423827959E-01
   119  1.1800000000000E+00 -5.7600923361922E-01  3.7956145964031E-01
   120  1.1900000000000E+00 -5.2885521239571E-01  3.5994807349955E-01
   121  1.2000000000000E+00 -4.8092029880833E-01  3.4062774291956E-01
   122  1.2100000000000E+00 -4.3237814147773E-01  3.2162375501128E-01
   123  1.2200000000000E+00 -3.8340552872220E-01  3.0295893652272E-01
   124  1.2300000000000E+00 -3.3418146592329E-01  2.8465556704122E-01
   125  1.2400000000000E+00 -2.8488622266253E-01  2.6673529048367E-01
   126  1.2500000000000E+00 -2.3570035669435E-01  2.4921902558424E-01
   127  1.2600000000000E+00 -1.8680372212204E-01  2.3212687611788E-01
   128  1.2700000000000E+00 -1.3837446938311E-01  2.1547804161968E-01
   129  1.2800000000000E+00 -9.0588044819012E-02  1.9929072937506E-01
   130  1.2900000000000E+00 -4.3616197703609E-02  1.8358206846273E-01
   131  1.3000000000000E+00  2.3739973684841E-03  1.6836802663225E-01
   132  1.3100000000000E+00  4.7221094878711E-02  1.5366333078957E-01
   133  1.3200000000000E+00  9.0770201830919E-02  1.3948139184871E-01
   134  1.3300000000000E+00  1.3287386270293E-01  1.2583423468397E-01
   135  1.3400000000000E+00  1.7339289862297E-01  1.1273243388660E-01
   136  1.3500000000000E+00  2.1219719382256E-01  1.0018505599160E-01
   137  1.3600000000000E+00  2.4916642281631E-01  8.8199608795591E-02
   138  1.3700000000000E+00  2.8419071222193E-01  7.6781998335188E-02
   139  1.3800000000000E+00  3.1717123165573E-01  6.5936494037498E-02
   140  1.3900000000000E+00  3.4802070871580E-01  5.5665702491311E-02
   141  1.4000000000000E+00  3.7666386369122E-01  4.5970550219177E-02
   142  1.4100000000000E+00  4.0303776030607E-01  3.6850275757817E-02
   143  1.4200000000000E+00  4.2709206951778E-01  2.8302431277592E-02
   144  1.4300000000000E+00  4.4878924412806E-01  2.0322893892249E-02
   145  1.4400000000000E+00  4.6810460273165E-01  1.2905886727954E-02
   146  1.4500000000000E+00  4.8502632231087E-01  6.0440097370661E-03
   147  1.4600000000000E+00  4.9955533957711E-01 -2.7171984230355E-04
   148  1.4700000000000E+00  5.1170516196016E-01 -6.0518175646396E-03
   149  1.4800000000000E+00  5.2150158993651E-01 -1.1308272660461E-02
   150  1.4900000000000E+00  5.2898235317031E-01 -1.6054480074218E-02
   151  1.5000000000000E+00  5.3419666370199E-01 -2.0305164085798E-02
   152  1.5100000000000E+00  5.3720469015537E-01 -2.4076294021370E-02
   153  1.5200000000000E+00  5.3807695763645E-01 -2.7384992632019E-02
   154  1.5300000000000E+00  5.3689367865744E-01 -3.0249437786585E-02
   155  1.5400000000000E+00  5.3374402103788E-01 -3.2688758188176E-02
   156  1.5500000000000E+00  5.2872531929496E-01 -3.4722923880454E-02
   157  1.5600000000000E+00  5.2194223654191E-01 -3.6372632360332E-02
   158  1.5700000000000E+00  5.1350588435456E-01 -3.7659191157038E-02
   159  1.5800000000000E+00  5.0353290844177E-01 -3.8604397773452E-02
   160  1.5900000000000E+00  4.9214454825935E-01 -3.9230417913713E-02
   161  1.6000000000000E+00  4.7946567893681E-01 -3.9559662940989E-02
   162  1.6100000000000E+00  4.6562384404068E-01 -3.9614667520879E-02
   163  1.6200000000000E+00  4.5074828777331E-01 -3.9417968408909E-02
   164  1.6300000000000E+00  4.3496899520332E-01 -3.8991985334968E-02
   165  1.6400000000000E+00  4.1841574904165E-01 -3.8358904923343E-02
   166  1.6500000000000E+00  4.0121721131661E-01 -3.7540568564239E-02
   167  1.6600000000000E+00  3.8350003806411E-01 -3.6558365121682E-02
   168  1.6700000000000E+00  3.6538803483619E-01 -3.5433129323435E-02
   169  1.6800000000000E+00  3.4700136044735E-01 -3.4185046631762E-02
   170  1.6900000000000E+00  3.2845578592428E-01 -3.2833565339534E-02
   171  1.7000000000000E+00  3.0986201510732E-01 -3.1397316575016E-02
   172  1.7100000000000E+00  2.9132507277550E-01 -2.9894042831299E-02
   173  1.7200000000000E+00  2.7294376553471E-01 -2.8340535563023E-02
   174  1.7300000000000E+00  2.5481022003025E-01 -2.6752582314888E-02
   175  1.7400000000000E+00  2.3700950232259E-01 -2.5144923763769E-02
   176  1.7500000000000E+00  2.1961932150951E-01 -2.3531220970134E-02
   177  1.7600000000000E+00  2.0270981989282E-01 -2.1924033045415E-02
   178  1.7700000000000E+00  1.8634345118348E-01 -2.0334805351067E-02
   179  1.7800000000000E+00  1.7057494742070E-01 -1.8773868252966E-02
   180  1.7900000000000E+00  1.5545137445801E-01 -1.7250446362391E-02
   181  1.8000000000000E+00  1.4101227504886E-01 -1.5772678103125E-02
   182  1.8100000000000E+00  1.2728989775458E-01 -1.4347645353837E-02
   183  1.8200000000000E+00  1.1430950910598E-01 -1.2981412826897E-02
   184  1.8300000000000E+00  1.0208978568400E-01 -1.1679076759848E-02
   185  1.8400000000000E+00  9.0643282443800E-02 -1.0444822455350E-02
   186  1.8500000000000E+00  7.9976971150632E-02 -9.2819899469887E-03
   187  1.8600000000000E+00  7.0092842195616E-02 -8.1931469983545E-03
   188  1.8700000000000E+00  6.0988570777468E-02 -7.1801694516529E-03
   189  1.8800000000000E+00  5.2658150744366E-02 -6.2443188003031E-03
   190  1.8900000000000E+00  4.5090527721364E-02 -5.3861128142586E-03
   191  1.9000000000000E+00  3.8268005052583E-02 -4.6051713311317E-03
   192  1.9100000000000E+00  3.2166455668303E-02 -3.9002483875159E-03
   193  1.9200000000000E+00  2.6756195270100E-02 -3.2693330091435E-03
   194  1.9300000000000E+00  2.2002737479907E-02 -2.7097380969834E-03
   195  1.9400000000000E+00  1.7867582489418E-02 -2.2181929118480E-03
   196  1.9500000000000E+00  1.4309004928633E-02 -1.7909355160711E-03
   197  1.9600000000000E+00  1.1282835907534E-02 -1.4238043139854E-03
   198  1.9700000000000E+00  8.7431837098202E-03 -1.1123254565838E-03
   199  1.9800000000000E+00  6.6433113295119E-03 -8.5180670132537E-04
   200  1.9900000000000E+00  4.9360555662752E-03 -6.3740448230947E-04
   201  2.0000000000000E+00  3.5715147785189E-03 -4.6406379611618E-04
   202  2.0100000000000E+00  2.4996822948726E-03 -3.2669603012726E-04
   203  2.0200000000000E+00  1.6797959099363E-03 -2.2066475678911E-04
   204  2.0300000000000E+00  1.0726077842699E-03 -1.4143103033506E-04
   205  2.0400000000000E+00  6.4084856792979E-04 -8.4610956886962E-05
   206  2.0500000000000E+00  3.4974113201299E-04 -4.6031033121997E-05
   207  2.0600000000000E+00  1.6735261052753E-04 -2.1769814585485E-05
   208  2.0700000000000E+00  6.4883673200710E-05 -8.1926537535105E-06
   209  2.0800000000000E+00  1.6879361277220E-05 -1.9799441766903E-06
   210  2.0900000000000E+00  1.5643134686668E-06 -1.3512972156625E-07
   211  2.1000000000000E+00 -1.4806059389572E-07  6.9442938070900E-09
   212  2.1100000000000E+00  2.1779963077306E-08 -1.8100820154657E-09
   213  2.12  0. -0.
   214  2.13 -0.  0.
   215  2.14  0. -0.
   216  2.15  0.  0.
   217  2.16  0.  0.
   218  2.17  0.  0.
   219  2.18  0.  0.
   220  2.19  0.  0.
   221  2.20  0.  0.
   222  2.21  0.  0.
   223  2.22  0.  0.
   224  2.23  0.  0.
   225  2.24  0.  0.
   226  2.25  0.  0.
   227  2.26  0.  0.
   228  2.27  0.  0.
   229  2.28  0.  0.
   230  2.29  0.  0.
   231  2.30  0.  0.
   232  2.31  0.  0.
   233  2.32  0.  0.
   234  2.33  0.  0.
   235  2.34  0.  0.
   236  2.35  0.  0.
   237  2.36  0.  0.
   238  2.37  0.  0.
   239  2.38  0.  0.
   240  2.39  0.  0.
   241  2.40  0.  0.
   242  2.41  0.  0.
   243  2.42  0.  0.
   244  2.43  0.  0.
   245  2.44  0.  0.
   246  2.45  0.  0.
   247  2.46  0.  0.
   248  2.47  0.  0.
   249  2.48  0.  0.
   250  2.49  0.  0.
   251  2.50  0.  0.
   252  2.51  0.  0.
   253  2.52  0.  0.
   254  2.53  0.  0.
   255  2.54  0.  0.
   256  2.55  0.  0.
   257  2.56  0.  0.
   258  2.57  0.  0.
   259  2.58  0.  0.
   260  2.59  0.  0.
   261  2.60  0.  0.
   262  2.61  0.  0.
   263  2.62  0.  0.
   264  2.63  0.  0.
   265  2.64  0.  0.
   266  2.65  0.  0.
   267  2.66  0.  0.
   268  2.67  0.  0.
   269  2.68  0.  0.
   270  2.69  0.  0.
   271  2.70  0.  0.
   272  2.71  0.  0.
   273  2.72  0.  0.
   274  2.73  0.  0.
   275  2.74  0.  0.
   276  2.75  0.  0.
   277  2.76  0.  0.
   278  2.77  0.  0.
   279  2.78  0.  0.
   280  2.79  0.  0.
   281  2.80  0.  0.
   282  2.81  0.  0.
   283  2.82  0.  0.
   284  2.83  0.  0.
   285  2.84  0.  0.
   286  2.85  0.  0.
   287  2.86  0.  0.
   288  2.87  0.  0.
   289  2.88  0.  0.
   290  2.89  0.  0.
   291  2.90  0.  0.
   292  2.91  0.  0.
   293  2.92  0.  0.
   294  2.93  0.  0.
   295  2.94  0.  0.
   296  2.95  0.  0.
   297  2.96  0.  0.
   298  2.97  0.  0.
   299  2.98  0.  0.
   300  2.99  0.  0.
   301  3.00  0.  0.
   302  3.01  0.  0.
   303  3.02  0.  0.
   304  3.03  0.  0.
   305  3.04  0.  0.
   306  3.05  0.  0.
   307  3.06  0.  0.
   308  3.07  0.  0.
   309  3.08  0.  0.
   310  3.09  0.  0.
   311  3.10  0.  0.
   312  3.11  0.  0.
   313  3.12  0.  0.
   314  3.13  0.  0.
   315  3.14  0.  0.
   316  3.15  0.  0.
   317  3.16  0.  0.
   318  3.17  0.  0.
   319  3.18  0.  0.
   320  3.19  0.  0.
   321  3.20  0.  0.
   322  3.21  0.  0.
   323  3.22  0.  0.
   324  3.23  0.  0.
   325  3.24  0.  0.
   326  3.25  0.  0.
   327  3.26  0.  0.
   328  3.27  0.  0.
   329  3.28  0.  0.
   330  3.29  0.  0.
   331  3.30  0.  0.
   332  3.31  0.  0.
   333  3.32  0.  0.
   334  3.33  0.  0.
   335  3.34  0.  0.
   336  3.35  0.  0.
   337  3.36  0.  0.
   338  3.37  0.  0.
   339  3.38  0.  0.
   340  3.39  0.  0.
   341  3.40  0.  0.
   342  3.41  0.  0.
   343  3.42  0.  0.
   344  3.43  0.  0.
   345  3.44  0.  0.
   346  3.45  0.  0.
   347  3.46  0.  0.
   348  3.47  0.  0.
   349  3.48  0.  0.
   350  3.49  0.  0.
   351  3.50  0.  0.
   352  3.51  0.  0.
   353  3.52  0.  0.
   354  3.53  0.  0.
   355  3.54  0.  0.
   356  3.55  0.  0.
   357  3.56  0.  0.
   358  3.57  0.  0.
   359  3.58  0.  0.
   360  3.59  0.  0.
   361  3.60  0.  0.
   362  3.61  0.  0.
   363  3.62  0.  0.
   364  3.63  0.  0.
   365  3.64  0.  0.
   366  3.65  0.  0.
   367  3.66  0.  0.
   368  3.67  0.  0.
   369  3.68  0.  0.
   370  3.69  0.  0.
   371  3.70  0.  0.
   372  3.71  0.  0.
   373  3.72  0.  0.
   374  3.73  0.  0.
   375  3.74  0.  0.
   376  3.75  0.  0.
   377  3.76  0.  0.
   378  3.77  0.  0.
   379  3.78  0.  0.
   380  3.79  0.  0.
   381  3.80  0.  0.
   382  3.81  0.  0.
   383  3.82  0.  0.
   384  3.83  0.  0.
   385  3.84  0.  0.
   386  3.85  0.  0.
   387  3.86  0.  0.
   388  3.87  0.  0.
   389  3.88  0.  0.
   390  3.89  0.  0.
   391  3.90  0.  0.
   392  3.91  0.  0.
   393  3.92  0.  0.
   394  3.93  0.  0.
   395  3.94  0.  0.
   396  3.95  0.  0.
   397  3.96  0.  0.
   398  3.97  0.  0.
   399  3.98  0.  0.
   400  3.99  0.  0.
   401  4.00  0.  0.
   402  4.01  0.  0.
   403  4.02  0.  0.
   404  4.03  0.  0.
   405  4.04  0.  0.
   406  4.05  0.  0.
   407  4.06  0.  0.
   408  4.07  0.  0.
   409  4.08  0.  0.
   410  4.09  0.  0.
   411  4.10  0.  0.
   412  4.11  0.  0.
   413  4.12  0.  0.
   414  4.13  0.  0.
   415  4.14  0.  0.
   416  4.15  0.  0.
   417  4.16  0.  0.
   418  4.17  0.  0.
   419  4.18  0.  0.
   420  4.19  0.  0.
   421  4.20  0.  0.
   422  4.21  0.  0.
   423  4.22  0.  0.
   424  4.23  0.  0.
   425  4.24  0.  0.
   426  4.25  0.  0.
   427  4.26  0.  0.
   428  4.27  0.  0.
   429  4.28  0.  0.
   430  4.29  0.  0.
   431  4.30  0.  0.
   432  4.31  0.  0.
   433  4.32  0.  0.
   434  4.33  0.  0.
   435  4.34  0.  0.
   436  4.35  0.  0.
   437  4.36  0.  0.
   438  4.37  0.  0.
   439  4.38  0.  0.
   440  4.39  0.  0.
   441  4.40  0.  0.
   442  4.41  0.  0.
   443  4.42  0.  0.
   444  4.43  0.  0.
   445  4.44  0.  0.
   446  4.45  0.  0.
   447  4.46  0.  0.
   448  4.47  0.  0.
   449  4.48  0.  0.
   450  4.49  0.  0.
   451  4.50  0.  0.
   452  4.51  0.  0.
   453  4.52  0.  0.
   454  4.53  0.  0.
   455  4.54  0.  0.
   456  4.55  0.  0.
   457  4.56  0.  0.
   458  4.57  0.  0.
   459  4.58  0.  0.
   460  4.59  0.  0.
   461  4.60  0.  0.
   462  4.61  0.  0.
   463  4.62  0.  0.
   464  4.63  0.  0.
   465  4.64  0.  0.
   466  4.65  0.  0.
   467  4.66  0.  0.
   468  4.67  0.  0.
   469  4.68  0.  0.
   470  4.69  0.  0.
   471  4.70  0.  0.
   472  4.71  0.  0.
   473  4.72  0.  0.
   474  4.73  0.  0.
   475  4.74  0.  0.
   476  4.75  0.  0.
   477  4.76  0.  0.
   478  4.77  0.  0.
   479  4.78  0.  0.
   480  4.79  0.  0.
   481  4.80  0.  0.
   482  4.81  0.  0.
   483  4.82  0.  0.
   484  4.83  0.  0.
   485  4.84  0.  0.
   486  4.85  0.  0.
   487  4.86  0.  0.
   488  4.87  0.  0.
   489  4.88  0.  0.
   490  4.89  0.  0.
   491  4.90  0.  0.
   492  4.91  0.  0.
   493  4.92  0.  0.
   494  4.93  0.  0.
   495  4.94  0.  0.
   496  4.95  0.  0.
   497  4.96  0.  0.
   498  4.97  0.  0.
   499  4.98  0.  0.
   500  4.99  0.  0.
   501  5.00  0.  0.
   502  5.01  0.  0.
   503  5.02  0.  0.
   504  5.03  0.  0.
   505  5.04  0.  0.
   506  5.05  0.  0.
   507  5.06  0.  0.
   508  5.07  0.  0.
   509  5.08  0.  0.
   510  5.09  0.  0.
   511  5.10  0.  0.
   512  5.11  0.  0.
   513  5.12  0.  0.
   514  5.13  0.  0.
   515  5.14  0.  0.
   516  5.15  0.  0.
   517  5.16  0.  0.
   518  5.17  0.  0.
   519  5.18  0.  0.
   520  5.19  0.  0.
   521  5.20  0.  0.
   522  5.21  0.  0.
   523  5.22  0.  0.
   524  5.23  0.  0.
   525  5.24  0.  0.
   526  5.25  0.  0.
   527  5.26  0.  0.
   528  5.27  0.  0.
   529  5.28  0.  0.
   530  5.29  0.  0.
   531  5.30  0.  0.
   532  5.31  0.  0.
   533  5.32  0.  0.
   534  5.33  0.  0.
   535  5.34  0.  0.
   536  5.35  0.  0.
   537  5.36  0.  0.
   538  5.37  0.  0.
   539  5.38  0.  0.
   540  5.39  0.  0.
   541  5.40  0.  0.
   542  5.41  0.  0.
   543  5.42  0.  0.
   544  5.43  0.  0.
   545  5.44  0.  0.
   546  5.45  0.  0.
   547  5.46  0.  0.
   548  5.47  0.  0.
   549  5.48  0.  0.
   550  5.49  0.  0.
   551  5.50  0.  0.
   552  5.51  0.  0.
   553  5.52  0.  0.
   554  5.53  0.  0.
   555  5.54  0.  0.
   556  5.55  0.  0.
   557  5.56  0.  0.
   558  5.57  0.  0.
   559  5.58  0.  0.
   560  5.59  0.  0.
   561  5.60  0.  0.
   562  5.61  0.  0.
   563  5.62  0.  0.
   564  5.63  0.  0.
   565  5.64  0.  0.
   566  5.65  0.  0.
   567  5.66  0.  0.
   568  5.67  0.  0.
   569  5.68  0.  0.
   570  5.69  0.  0.
   571  5.70  0.  0.
   572  5.71  0.  0.
   573  5.72  0.  0.
   574  5.73  0.  0.
   575  5.74  0.  0.
   576  5.75  0.  0.
   577  5.76  0.  0.
   578  5.77  0.  0.
   579  5.78  0.  0.
   580  5.79  0.  0.
   581  5.80  0.  0.
   582  5.81  0.  0.
   583  5.82  0.  0.
   584  5.83  0.  0.
   585  5.84  0.  0.
   586  5.85  0.  0.
   587  5.86  0.  0.
   588  5.87  0.  0.
   589  5.88  0.  0.
   590  5.89  0.  0.
   591  5.90  0.  0.
   592  5.91  0.  0.
   593  5.92  0.  0.
   594  5.93  0.  0.
   595  5.94  0.  0.
   596  5.95  0.  0.
   597  5.96  0.  0.
   598  5.97  0.  0.
   599  5.98  0.  0.
   600  5.99  0.  0.
   1                        -4.5740822926692E+00 -1.3474947088160E+00
     1  0.0000000000000E+00  1.7299890686662E-10 -5.9508372535211E-10
     2  1.0000000000000E-02  1.0682354746703E-03 -9.1117029699270E-04
     3  2.0000000000000E-02  4.2695277922424E-03 -3.6391255011386E-03
     4  3.0000000000000E-02  9.5936490617965E-03 -8.1672356663274E-03
     5  4.0000000000000E-02  1.7023600800023E-02 -1.4467907606571E-02
     6  5.0000000000000E-02  2.6535685608484E-02 -2.2502768852013E-02
     7  6.0000000000000E-02  3.8099606874660E-02 -3.2222922938885E-02
     8  7.0000000000000E-02  5.1678595856617E-02 -4.3569273812649E-02
     9  8.0000000000000E-02  6.7229565338090E-02 -5.6472916528460E-02
    10  9.0000000000000E-02  8.4703288875023E-02 -7.0855590866843E-02
    11  1.0000000000000E-01  1.0404460449754E-01 -8.6630193950920E-02
    12  1.1000000000000E-01  1.2519264158434E-01 -1.0370134746008E-01
    13  1.2000000000000E-01  1.4808106949096E-01 -1.2196601458858E-01
    14  1.3000000000000E-01  1.7263836639008E-01 -1.4131416150050E-01
    15  1.4000000000000E-01  1.9878810667266E-01 -1.6162945768940E-01
    16  1.5000000000000E-01  2.2644926516325E-01 -1.8279000936377E-01
    17  1.6000000000000E-01  2.5553653632298E-01 -2.0466911975271E-01
    18  1.7000000000000E-01  2.8596066654902E-01 -2.2713607006049E-01
    19  1.8000000000000E-01  3.1762879763136E-01 -2.5005691469583E-01
    20  1.9000000000000E-01  3.5044481939564E-01 -2.7329528436339E-01
    21  2.0000000000000E-01  3.8430972954528E-01 -2.9671319062921E-01
    22  2.1000000000000E-01  4.1912199871709E-01 -3.2017182566035E-01
    23  2.2000000000000E-01  4.5477793878165E-01 -3.4353235098830E-01
    24  2.3000000000000E-01  4.9117207245210E-01 -3.6665666935549E-01
    25  2.4000000000000E-01  5.2819750231321E-01 -3.8940817397043E-01
    26  2.5000000000000E-01  5.6574627744466E-01 -4.1165246981764E-01
    27  2.6000000000000E-01  6.0370975588803E-01 -4.3325806203866E-01
    28  2.7000000000000E-01  6.4197896129602E-01 -4.5409700681640E-01
    29  2.8000000000000E-01  6.8044493220143E-01 -4.7404552065167E-01
    30  2.9000000000000E-01  7.1899906245422E-01 -4.9298454441271E-01
    31  3.0000000000000E-01  7.5753343149367E-01 -5.1080025906062E-01
    32  3.1000000000000E-01  7.9594112324920E-01 -5.2738455049894E-01
    33  3.2000000000000E-01  8.3411653259627E-01 -5.4263542155904E-01
    34  3.3000000000000E-01  8.7195565843100E-01 -5.5645734970741E-01
    35  3.4000000000000E-01  9.0935638256742E-01 -5.6876158964034E-01
    36  3.5000000000000E-01  9.4621873380337E-01 -5.7946642050880E-01
    37  3.6000000000000E-01  9.8244513664280E-01 -5.8849733808585E-01
    38  3.7000000000000E-01  1.0179406443027E+00 -5.9578719274402E-01
    39  3.8000000000000E-01  1.0526131557701E+00 -6.0127627464392E-01
    40  3.9000000000000E-01  1.0863736168088E+00 -6.0491234804373E-01
    41  4.0000000000000E-01  1.1191362049396E+00 -6.0665063711475E-01
    42  4.1000000000000E-01  1.1508184985430E+00 -6.0645376608706E-01
    43  4.2000000000000E-01  1.1813416303396E+00 -6.0429165694613E-01
    44  4.3000000000000E-01  1.2106304256123E+00 -6.0014138825226E-01
    45  4.4000000000000E-01  1.2386135256204E+00 -5.9398701895572E-01
    46  4.5000000000000E-01  1.2652234967440E+00 -5.8581938132925E-01
    47  4.6000000000000E-01  1.2903969259614E+00 -5.7563584733265E-01
    48  4.7000000000000E-01  1.3140745033238E+00 -5.6344007286089E-01
    49  4.8000000000000E-01  1.3362010921358E+00 -5.4924172440558E-01
    50  4.9000000000000E-01  1.3567257875801E+00 -5.3305619267952E-01
    51  5.0000000000000E-01  1.3756019645507E+00 -5.1490429771629E-01
    52  5.1000000000000E-01  1.3927873154593E+00 -4.9481198986112E-01
    53  5.2000000000000E-01  1.4082438787781E+00 -4.7281005091901E-01
    54  5.3000000000000E-01  1.4219380590659E+00 -4.4893379952141E-01
    55  5.4000000000000E-01  1.4338406391916E+00 -4.2322280451899E-01
    56  5.5000000000000E-01  1.4439267854347E+00 -3.9572060990638E-01
    57  5.6000000000000E-01  1.4521760460897E+00 -3.6647447444123E-01
    58  5.7000000000000E-01  1.4585723441456E+00 -3.3553512873778E-01
    59  5.8000000000000E-01  1.4631039645434E+00 -3.0295655219994E-01
    60  5.9000000000000E-01  1.4657635364456E+00 -2.6879577171658E-01
    61  6.0000000000000E-01  1.4665480108688E+00 -2.3311268357653E-01
    62  6.1000000000000E-01  1.4654586339545E+00 -1.9596989958095E-01
    63  6.2000000000000E-01  1.4625009160607E+00 -1.5743261784050E-01
    64  6.3000000000000E-01  1.4576845967797E+00 -1.1756851825147E-01
    65  6.4000000000000E-01  1.4510236058921E+00 -7.6447682155261E-02
    66  6.5000000000000E-01  1.4425360201895E+00 -3.4142535205122E-02
    67  6.6000000000000E-01  1.4322440160126E+00  9.2721880006139E-03
    68  6.7000000000000E-01  1.4201738172741E+00  5.3719459401796E-02
    69  6.8000000000000E-01  1.4063556386638E+00  9.9119955374165E-02
    70  6.9000000000000E-01  1.3908236236689E+00  1.4539203972064E-01
    71  7.0000000000000E-01  1.3736157769812E+00  1.9245173477802E-01
    72  7.1000000000000E-01  1.3547738908185E+00  2.4021268396066E-01
    73  7.2000000000000E-01  1.3343434646436E+00  2.8858610931428E-01
    74  7.3000000000000E-01  1.3123736177405E+00  3.3748076785472E-01
    75  7.4000000000000E-01  1.2889169940858E+00  3.8680291061261E-01
    76  7.5000000000000E-01  1.2640296589513E+00  4.3645624839570E-01
    77  7.6000000000000E-01  1.2377709866786E+00  4.8634192831249E-01
    78  7.7000000000000E-01  1.2102035390868E+00  5.3635852507381E-01
    79  7.8000000000000E-01  1.1813929340060E+00  5.8640205100217E-01
    80  7.9000000000000E-01  1.1514077034731E+00  6.3636598853304E-01
    81  8.0000000000000E-01  1.1203191411833E+00  6.8614134878836E-01
    82  8.1000000000000E-01  1.0882011388580E+00  7.3561675954302E-01
    83  8.2000000000000E-01  1.0551300112709E+00  7.8467858559133E-01
    84  8.3000000000000E-01  1.0211843097606E+00  8.3321108415732E-01
    85  8.4000000000000E-01  9.8644462415996E-01  8.8109659758248E-01
    86  8.5000000000000E-01  9.5099337317901E-01  9.2821578507295E-01
    87  8.6000000000000E-01  9.1491458339254E-01  9.7444789479909E-01
    88  8.7000000000000E-01  8.7829365710572E-01  1.0196710771211E+00
    89  8.8000000000000E-01  8.4121712949620E-01  1.0637627391681E+00
    90  8.9000000000000E-01  8.0377241556034E-01  1.1065999404351E+00
    91  9.0000000000000E-01  7.6604754752207E-01  1.1480598284843E+00
    92  9.1000000000000E-01  7.2813090349413E-01  1.1880201132564E+00
    93  9.2000000000000E-01  6.9011092831091E-01  1.2263595779168E+00