:MDSTEP: 10
:R(Bohr):
  3.9375085436E-01   1.2477510023E-01   7.0795472927E-02
  3.7616559147E+00   1.5004811481E+01   3.8374333606E+00
  7.6119052967E+00   1.4956141944E+01   2.4720963906E-01
  1.1208617735E+01   1.5008230548E+01   3.6818102791E+00
  4.6080885062E-02   7.5858905012E+00   1.5010200025E+01
  3.7238530016E+00   7.5804278728E+00   3.7428469326E+00
  7.3774955743E+00   7.4237279388E+00   4.4120589325E-02
  1.1267445830E+01   7.5406239843E+00   3.8168007275E+00
  4.6783721746E-01   1.4952688057E+01   7.5312655585E+00
  3.6821496431E+00   9.1116747235E-03   1.1161692209E+01
  7.5107623471E+00   1.6065194455E-02   7.7560164926E+00
  1.1278013773E+01   1.4953252872E+01   1.1334118060E+01
  8.9204723747E-02   7.5130104667E+00   7.5695143788E+00
  3.8797117246E+00   7.5765633716E+00   1.1252223173E+01
  7.3927998317E+00   7.6129802355E+00   7.4605480232E+00
  1.1270132854E+01   7.3824032400E+00   1.1251996479E+01
  2.4732846278E-02   3.7851369585E+00   3.7853338875E+00
  3.7201073061E+00   3.7621317001E+00   1.5007819656E+01
  7.5536370396E+00   3.6904666765E+00   3.6357968564E+00
  1.1229195825E+01   3.7388533291E+00   1.4967621547E+01
  2.9179516803E-01   1.1234752847E+01   3.7820271777E+00
  3.6882541234E+00   1.1278360532E+01   4.8209036559E-01
  7.5499517400E+00   1.1318975460E+01   3.7748269851E+00
  1.1137067687E+01   1.1254509826E+01   1.2269069030E-02
  4.0767312936E-02   3.7103491036E+00   1.1184960228E+01
  3.7556170189E+00   3.7093807155E+00   7.5845938554E+00
  7.5727680845E+00   3.7297898668E+00   1.1274004067E+01
  1.1216966714E+01   3.7948153486E+00   7.5495950370E+00
  2.8830294324E-01   1.1263000872E+01   1.1274501949E+01
  3.7258956981E+00   1.1178410775E+01   7.8970423797E+00
  7.5450466128E+00   1.1334313636E+01   1.1334761623E+01
  1.1305188697E+01   1.1266846030E+01   7.5414310182E+00
:V(Bohr/atu):
 -4.2897805601E-05   5.5579652563E-04   3.1594418908E-04
  4.5132634511E-05  -5.0036807458E-05   3.6912919406E-04
  4.5826427041E-04  -2.6780125624E-04  -2.4369643198E-04
 -2.3549901577E-04  -3.6183886491E-05  -3.1571725218E-04
  2.0825533645E-04   3.4003577849E-04  -3.0479806253E-05
 -1.3794714960E-04   3.1972263359E-04  -5.1114595388E-05
 -5.7929224085E-04  -3.7761420193E-04   2.0281360065E-04
  1.9166458935E-05   1.3902625710E-04   2.7649942541E-04
  2.8017484047E-04  -2.8352336639E-04   9.9605175046E-05
 -3.1086476256E-04   4.4242033343E-05  -4.4469818315E-04
  1.3210490069E-05   7.2187098619E-05  -2.3931130622E-04
  7.2521897853E-05  -2.7928675486E-04   3.2375604747E-04
  4.0229666650E-04   2.1203778678E-05   2.7313130116E-04
  5.5378238534E-04   2.9871454548E-04  -5.0695997886E-05
 -5.1528679596E-04   4.6174402756E-04  -2.0774633704E-04
  2.9287269547E-05  -5.6829466622E-04  -4.6376741891E-05
  1.0925328013E-04   1.3457352810E-04   1.4132874707E-04
 -1.5393283543E-04   3.6262667975E-05  -2.0845870879E-05
  2.1244958029E-04  -2.8392106643E-04  -5.4672058565E-04
 -1.6323505249E-04  -6.2467626028E-05  -2.2610962679E-04
 -9.9090112614E-06  -1.2639915994E-04   1.0518884608E-04
 -3.0741348685E-04   6.5807081436E-05  -5.4929904039E-05
  2.0592613604E-04   2.5006816157E-04   5.2985842883E-05
 -5.9509419422E-04  -2.9711130432E-05   8.5015084624E-05
  1.8297815247E-04  -1.9318599413E-04  -3.5373352624E-04
 -2.2004108995E-06  -1.9975544178E-04   3.6261000454E-04
  3.0303118743E-04  -1.0634059910E-04   4.1321893012E-05
 -2.0732901937E-04   1.8120451045E-04   1.8079538350E-04
 -3.2255253278E-05   2.0404143399E-06   2.2370620880E-05
 -1.5453144491E-04  -3.8094082062E-04  -4.8144823074E-04
  1.9284743762E-04   3.1844483753E-04   2.8921053602E-04
  1.6933783514E-04   1.9709341859E-05   1.8099617128E-04
:NPT_NP_QMASS: 500
:NPT_NP_BMASS: 0.1
:NPT_NP_Sv: 4.01451407806547e-05
:NPT_NP_Pm: 0.0902887926380276 0.0902887926380276 0.0902887926380276
:NPT_NP_S: 1.00506773298176
:NPT_NP_range_x_velo: 0.000133985631094227
:NPT_NP_range_y_velo: 0.000133985631094227
:NPT_NP_range_z_velo: 0.000133985631094227
:LATVEC_SCALE: 15.0169010142042 15.0169010142042 15.0169010142042
:TARGET_PRESSURE: 0 GPa
:NPT_NP_ini_Hamiltonian: -96.086976115345
:TEL(K): 1120
:TIO(K): 1120.34588978866
