:MDSTEP: 10
:R(Bohr):
  3.9375085438E-01   1.2477510029E-01   7.0795472948E-02
  3.7616559147E+00   1.5004811481E+01   3.8374333606E+00
  7.6119052967E+00   1.4956141944E+01   2.4720963904E-01
  1.1208617735E+01   1.5008230548E+01   3.6818102791E+00
  4.6080885045E-02   7.5858905012E+00   1.5010200025E+01
  3.7238530016E+00   7.5804278727E+00   3.7428469326E+00
  7.3774955744E+00   7.4237279388E+00   4.4120589266E-02
  1.1267445830E+01   7.5406239842E+00   3.8168007276E+00
  4.6783721746E-01   1.4952688057E+01   7.5312655585E+00
  3.6821496432E+00   9.1116748242E-03   1.1161692209E+01
  7.5107623471E+00   1.6065194532E-02   7.7560164926E+00
  1.1278013773E+01   1.4953252873E+01   1.1334118060E+01
  8.9204723717E-02   7.5130104666E+00   7.5695143788E+00
  3.8797117246E+00   7.5765633715E+00   1.1252223173E+01
  7.3927998318E+00   7.6129802355E+00   7.4605480232E+00
  1.1270132854E+01   7.3824032399E+00   1.1251996479E+01
  2.4732846281E-02   3.7851369584E+00   3.7853338876E+00
  3.7201073061E+00   3.7621316999E+00   1.5007819656E+01
  7.5536370396E+00   3.6904666764E+00   3.6357968565E+00
  1.1229195825E+01   3.7388533290E+00   1.4967621547E+01
  2.9179516800E-01   1.1234752847E+01   3.7820271777E+00
  3.6882541235E+00   1.1278360532E+01   4.8209036559E-01
  7.5499517401E+00   1.1318975460E+01   3.7748269851E+00
  1.1137067687E+01   1.1254509826E+01   1.2269069021E-02
  4.0767312927E-02   3.7103491036E+00   1.1184960227E+01
  3.7556170189E+00   3.7093807154E+00   7.5845938554E+00
  7.5727680845E+00   3.7297898667E+00   1.1274004067E+01
  1.1216966714E+01   3.7948153486E+00   7.5495950370E+00
  2.8830294322E-01   1.1263000872E+01   1.1274501949E+01
  3.7258956982E+00   1.1178410775E+01   7.8970423797E+00
  7.5450466128E+00   1.1334313636E+01   1.1334761623E+01
  1.1305188697E+01   1.1266846030E+01   7.5414310182E+00
:V(Bohr/atu):
 -4.2897805528E-05   5.5579652597E-04   3.1594418920E-04
  4.5132634577E-05  -5.0036807005E-05   3.6912919422E-04
  4.5826427038E-04  -2.6780125603E-04  -2.4369643211E-04
 -2.3549901571E-04  -3.6183886188E-05  -3.1571725204E-04
  2.0825533640E-04   3.4003577813E-04  -3.0479806266E-05
 -1.3794714960E-04   3.1972263317E-04  -5.1114595098E-05
 -5.7929224073E-04  -3.7761420206E-04   2.0281360037E-04
  1.9166459146E-05   1.3902625682E-04   2.7649942578E-04
  2.8017484050E-04  -2.8352336581E-04   9.9605174914E-05
 -3.1086476214E-04   4.4242033791E-05  -4.4469818323E-04
  1.3210490052E-05   7.2187098967E-05  -2.3931130609E-04
  7.2521897589E-05  -2.7928675454E-04   3.2375604731E-04
  4.0229666643E-04   2.1203778154E-05   2.7313130106E-04
  5.5378238547E-04   2.9871454508E-04  -5.0695998270E-05
 -5.1528679579E-04   4.6174402725E-04  -2.0774633679E-04
  2.9287269428E-05  -5.6829466640E-04  -4.6376742179E-05
  1.0925328016E-04   1.3457352774E-04   1.4132874748E-04
 -1.5393283542E-04   3.6262667390E-05  -2.0845870981E-05
  2.1244958003E-04  -2.8392106692E-04  -5.4672058520E-04
 -1.6323505263E-04  -6.2467626551E-05  -2.2610962680E-04
 -9.9090113491E-06  -1.2639915959E-04   1.0518884638E-04
 -3.0741348655E-04   6.5807081980E-05  -5.4929904067E-05
  2.0592613608E-04   2.5006816208E-04   5.2985843043E-05
 -5.9509419456E-04  -2.9711130032E-05   8.5015084573E-05
  1.8297815245E-04  -1.9318599435E-04  -3.5373352671E-04
 -2.2004110701E-06  -1.9975544214E-04   3.6261000464E-04
  3.0303118726E-04  -1.0634059959E-04   4.1321892643E-05
 -2.0732901930E-04   1.8120451017E-04   1.8079538356E-04
 -3.2255253336E-05   2.0404145556E-06   2.2370620638E-05
 -1.5453144461E-04  -3.8094082031E-04  -4.8144823064E-04
  1.9284743772E-04   3.1844483798E-04   2.8921053576E-04
  1.6933783481E-04   1.9709341993E-05   1.8099617132E-04
:NPT_NP_QMASS: 500
:NPT_NP_BMASS: 0.1
:NPT_NP_Sv: 4.01451448693593e-05
:NPT_NP_Pm: 0.0902887926449831 0.0902887926449831 0.0902887926449831
:NPT_NP_S: 1.00506773308612
:NPT_NP_range_x_velo: 0.00013398563111833
:NPT_NP_range_y_velo: 0.00013398563111833
:NPT_NP_range_z_velo: 0.00013398563111833
:CELL: 15.0169010142091 15.0169010142091 15.0169010142091
:TARGET_PRESSURE: 0 GPa
:NPT_NP_ini_Hamiltonian: -96.0869761151884
:TEL(K): 1120
:TIO(K): 1120.3458898308
