Ti    ONCVPSP-4.0.1  r_core=   2.44814   2.31982   2.25146
     22.0000     12.0000      200312    zatom,zion,pspd
     8       2   2     4   600     0    pspcod,pspxc,lmax,lloc,mmax,r2well
  5.99000000  0.00000000  0.00000000    rchrg fchrg qchrg
     2     2     2     0     0    nproj
     1     1           extension_switch
   0                         2.0505618836461E+00 -1.1091555132075E-01
     1  0.0000000000000E+00 -1.1639522679019E-11 -1.5347351167705E-10
     2  1.0000000000000E-02  5.1955538682745E-02  6.4343913469980E-02
     3  2.0000000000000E-02  1.0383329113363E-01  1.2841266473116E-01
     4  3.0000000000000E-02  1.5555563650878E-01  1.9193247836913E-01
     5  4.0000000000000E-02  2.0704528417383E-01  2.5463234528663E-01
     6  5.0000000000000E-02  2.5822543739530E-01  3.1624538772177E-01
     7  6.0000000000000E-02  3.0901995534439E-01  3.7651020260639E-01
     8  7.0000000000000E-02  3.5935351286410E-01  4.3517217622497E-01
     9  8.0000000000000E-02  4.0915175746261E-01  4.9198476328777E-01
    10  9.0000000000000E-02  4.5834146300996E-01  5.4671072372202E-01
    11  1.0000000000000E-01  5.0685067963255E-01  5.9912331071102E-01
    12  1.1000000000000E-01  5.5460887931913E-01  6.4900740377165E-01
    13  1.2000000000000E-01  6.0154709677462E-01  6.9616058095444E-01
    14  1.3000000000000E-01  6.4759806508224E-01  7.4039412457612E-01
    15  1.4000000000000E-01  6.9269634576117E-01  7.8153395525002E-01
    16  1.5000000000000E-01  7.3677845283558E-01  8.1942148936323E-01
    17  1.6000000000000E-01  7.7978297056142E-01  8.5391441555930E-01
    18  1.7000000000000E-01  8.2165066448939E-01  8.8488738621869E-01
    19  1.8000000000000E-01  8.6232458557614E-01  9.1223262038458E-01
    20  1.9000000000000E-01  9.0175016709057E-01  9.3586041505554E-01
    21  2.0000000000000E-01  9.3987531409784E-01  9.5569956225824E-01
    22  2.1000000000000E-01  9.7665048534060E-01  9.7169766981748E-01
    23  2.2000000000000E-01  1.0120287673738E+00  9.8382138425807E-01
    24  2.3000000000000E-01  1.0459659408471E+00  9.9205651479681E-01
    25  2.4000000000000E-01  1.0784205388677E+00  9.9640805791436E-01
    26  2.5000000000000E-01  1.1093538974109E+00  9.9690012252925E-01
    27  2.6000000000000E-01  1.1387301977875E+00  9.9357575633018E-01
    28  2.7000000000000E-01  1.1665165012097E+00  9.8649667435236E-01
    29  2.8000000000000E-01  1.1926827755353E+00  9.7574289140910E-01
    30  2.9000000000000E-01  1.2172019143035E+00  9.6141226050433E-01
    31  3.0000000000000E-01  1.2400497482116E+00  9.4361991985710E-01
    32  3.1000000000000E-01  1.2612050492104E+00  9.2249765165819E-01
    33  3.2000000000000E-01  1.2806495274300E+00  8.9819315615197E-01
    34  3.3000000000000E-01  1.2983678211747E+00  8.7086924509042E-01
    35  3.4000000000000E-01  1.3143474802528E+00  8.4070295903594E-01
    36  3.5000000000000E-01  1.3285789429322E+00  8.0788461339786E-01
    37  3.6000000000000E-01  1.3410555068335E+00  7.7261677846482E-01
    38  3.7000000000000E-01  1.3517732940953E+00  7.3511319904836E-01
    39  3.8000000000000E-01  1.3607312111593E+00  6.9559765966999E-01
    40  3.9000000000000E-01  1.3679309035419E+00  6.5430280151277E-01
    41  4.0000000000000E-01  1.3733767059687E+00  6.1146889760955E-01
    42  4.1000000000000E-01  1.3770755882571E+00  5.6734259295655E-01
    43  4.2000000000000E-01  1.3790370973416E+00  5.2217561642038E-01
    44  4.3000000000000E-01  1.3792732958351E+00  4.7622347144667E-01
    45  4.4000000000000E-01  1.3777986975270E+00  4.2974411268122E-01
    46  4.5000000000000E-01  1.3746302002098E+00  3.8299661567532E-01
    47  4.6000000000000E-01  1.3697870162269E+00  3.3623984686989E-01
    48  4.7000000000000E-01  1.3632906011237E+00  2.8973114103355E-01
    49  4.8000000000000E-01  1.3551645807745E+00  2.4372499327138E-01
    50  4.9000000000000E-01  1.3454346773469E+00  1.9847177262232E-01
    51  5.0000000000000E-01  1.3341286344473E+00  1.5421646412465E-01
    52  5.1000000000000E-01  1.3212761417772E+00  1.1119744605199E-01
    53  5.2000000000000E-01  1.3069087596075E+00  6.9645308807089E-02
    54  5.3000000000000E-01  1.2910598433592E+00  2.9781721710283E-02
    55  5.4000000000000E-01  1.2737644685537E+00 -8.1816463690116E-03
    56  5.5000000000000E-01  1.2550593563729E+00 -4.4044146907457E-02
    57  5.6000000000000E-01  1.2349828000417E+00 -7.7617106872826E-02
    58  5.7000000000000E-01  1.2135745922190E+00 -1.0872471422305E-01
    59  5.8000000000000E-01  1.1908759535558E+00 -1.3720482927275E-01
    60  5.9000000000000E-01  1.1669294625474E+00 -1.6290971787454E-01
    61  6.0000000000000E-01  1.1417789867815E+00 -1.8570670282052E-01
    62  6.1000000000000E-01  1.1154696156503E+00 -2.0547873034490E-01
    63  6.2000000000000E-01  1.0880475945679E+00 -2.2212484910328E-01
    64  6.3000000000000E-01  1.0595602607042E+00 -2.3556059951288E-01
    65  6.4000000000000E-01  1.0300559802171E+00 -2.4571831185646E-01
    66  6.5000000000000E-01  9.9958408693904E-01 -2.5254731208150E-01
    67  6.6000000000000E-01  9.6819482244364E-01 -2.5601403475774E-01
    68  6.7000000000000E-01  9.3593927739656E-01 -2.5610204319206E-01
    69  6.8000000000000E-01  9.0286933406739E-01 -2.5281195723134E-01
    70  6.9000000000000E-01  8.6903760985870E-01 -2.4616128981406E-01
    71  7.0000000000000E-01  8.3449740168754E-01 -2.3618419385127E-01
    72  7.1000000000000E-01  7.9930263103614E-01 -2.2293112152789E-01
    73  7.2000000000000E-01  7.6350778947262E-01 -2.0646839861205E-01
    74  7.3000000000000E-01  7.2716788442912E-01 -1.8687771683776E-01
    75  7.4000000000000E-01  6.9033838501331E-01 -1.6425554788754E-01
    76  7.5000000000000E-01  6.5307516762135E-01 -1.3871248293673E-01
    77  7.6000000000000E-01  6.1543446111462E-01 -1.1037250213298E-01
    78  7.7000000000000E-01  5.7747279132002E-01 -7.9372178768755E-02
    79  7.8000000000000E-01  5.3924692461409E-01 -4.5859823257121E-02
    80  7.9000000000000E-01  5.0081381035435E-01 -9.9945723432566E-03
    81  8.0000000000000E-01  4.6223052192784E-01  2.8054570729338E-02
    82  8.1000000000000E-01  4.2355419619591E-01  6.8109739127484E-02
    83  8.2000000000000E-01  3.8484197112684E-01  1.0998524222775E-01
    84  8.3000000000000E-01  3.4615092142292E-01  1.5348863594734E-01
    85  8.4000000000000E-01  3.0753799196640E-01  1.9842181711175E-01
    86  8.5000000000000E-01  2.6905992892985E-01  2.4458213526988E-01
    87  8.6000000000000E-01  2.3077320841906E-01  2.9176351531286E-01
    88  8.7000000000000E-01  1.9273396254272E-01  3.3975758424032E-01
    89  8.8000000000000E-01  1.5499790283064E-01  3.8835479544687E-01
    90  8.9000000000000E-01  1.1762024095219E-01  4.3734554396976E-01
    91  9.0000000000000E-01  8.0655606718355E-02  4.8652126625011E-01
    92  9.1000000000000E-01  4.4157963383819E-02  5.3567551810821E-01
    93  9.2000000000000E-01  8.1805203001868E-03  5.8460502482215E-01
    94  9.3000000000000E-01 -2.7224356993132E-02  6.3311069742375E-01
    95  9.4000000000000E-01 -6.2005239117468E-02  6.8099860958714E-01
    96  9.5000000000000E-01 -9.6111727483202E-02  7.2808092977966E-01
    97  9.6000000000000E-01 -1.2949455100124E-01  7.7417680367120E-01
    98  9.7000000000000E-01 -1.6210566464421E-01  8.1911318215541E-01
    99  9.8000000000000E-01 -1.9389834958758E-01  8.6272559071835E-01
   100  9.9000000000000E-01 -2.2482731462540E-01  9.0485883629962E-01
   101  1.0000000000000E+00 -2.5484879852060E-01  9.4536764822075E-01
   102  1.0100000000000E+00 -2.8392067291694E-01  9.8411725020487E-01
   103  1.0200000000000E+00 -3.1200254540808E-01  1.0209838609772E+00
   104  1.0300000000000E+00 -3.3905586232973E-01  1.0558551214144E+00
   105  1.0400000000000E+00 -3.6504401081385E-01  1.0886304466993E+00
   106  1.0500000000000E+00 -3.8993241961900E-01  1.1192213024311E+00
   107  1.0600000000000E+00 -4.1368865822926E-01  1.1475514041410E+00
   108  1.0700000000000E+00 -4.3628253369525E-01  1.1735568401606E+00
   109  1.0800000000000E+00 -4.5768618467525E-01  1.1971861182846E+00
   110  1.0900000000000E+00 -4.7787417212255E-01  1.2184001371589E+00
   111  1.1000000000000E+00 -4.9682356605629E-01  1.2371720838041E+00
   112  1.1100000000000E+00 -5.1451402784904E-01  1.2534872591494E+00
   113  1.1200000000000E+00 -5.3092788746316E-01  1.2673428339035E+00
   114  1.1300000000000E+00 -5.4605021507157E-01  1.2787475375193E+00
   115  1.1400000000000E+00 -5.5986888650597E-01  1.2877212834214E+00
   116  1.1500000000000E+00 -5.7237464198703E-01  1.2942947340512E+00
   117  1.1600000000000E+00 -5.8356113760677E-01  1.2985088096417E+00
   118  1.1700000000000E+00 -5.9342498905333E-01  1.3004141449712E+00
   119  1.1800000000000E+00 -6.0196580709193E-01  1.3000704986390E+00
   120  1.1900000000000E+00 -6.0918622434396E-01  1.2975461196813E+00
   121  1.2000000000000E+00 -6.1509191293778E-01  1.2929170765744E+00
   122  1.2100000000000E+00 -6.1969159264007E-01  1.2862665538751E+00
   123  1.2200000000000E+00 -6.2299702911597E-01  1.2776841219101E+00
   124  1.2300000000000E+00 -6.2502302200818E-01  1.2672649850501E+00
   125  1.2400000000000E+00 -6.2578738257073E-01  1.2551092141972E+00
   126  1.2500000000000E+00 -6.2531090064170E-01  1.2413209691584E+00
   127  1.2600000000000E+00 -6.2361730078931E-01  1.2260077165947E+00
   128  1.2700000000000E+00 -6.2073318751974E-01  1.2092794492089E+00
   129  1.2800000000000E+00 -6.1668797948921E-01  1.1912479117717E+00
   130  1.2900000000000E+00 -6.1151383271990E-01  1.1720258394878E+00
   131  1.3000000000000E+00 -6.0524555287689E-01  1.1517262140697E+00
   132  1.3100000000000E+00 -5.9792049672179E-01  1.1304615427179E+00
   133  1.3200000000000E+00 -5.8957846291789E-01  1.1083431650059E+00
   134  1.3300000000000E+00 -5.8026157242049E-01  1.0854805924376E+00
   135  1.3400000000000E+00 -5.7001413874493E-01  1.0619808851830E+00
   136  1.3500000000000E+00 -5.5888252846262E-01  1.0379480702114E+00
   137  1.3600000000000E+00 -5.4691501233204E-01  1.0134826047293E+00
   138  1.3700000000000E+00 -5.3416160752685E-01  9.8868088849833E-01
   139  1.3800000000000E+00 -5.2067391147633E-01  9.6363482825181E-01
   140  1.3900000000000E+00 -5.0650492788427E-01  9.3843145706062E-01
   141  1.4000000000000E+00 -4.9170888554012E-01  9.1315261111622E-01
   142  1.4100000000000E+00 -4.7634105058149E-01  8.8787466600063E-01
   143  1.4200000000000E+00 -4.6045753290833E-01  8.6266833411132E-01
   144  1.4300000000000E+00 -4.4411508748693E-01  8.3759852450030E-01
   145  1.4400000000000E+00 -4.2737091131541E-01  8.1272426597461E-01
   146  1.4500000000000E+00 -4.1028243685190E-01  7.8809869389611E-01
   147  1.4600000000000E+00 -3.9290712273114E-01  7.6376910071014E-01
   148  1.4700000000000E+00 -3.7530224261545E-01  7.3977704983218E-01
   149  1.4800000000000E+00 -3.5752467304085E-01  7.1615855212973E-01
   150  1.4900000000000E+00 -3.3963068112920E-01  6.9294430385658E-01
   151  1.5000000000000E+00 -3.2167571304182E-01  6.7015998453029E-01
   152  1.5100000000000E+00 -3.0371418404967E-01  6.4782661289406E-01
   153  1.5200000000000E+00 -2.8579927108907E-01  6.2596095877463E-01
   154  1.5300000000000E+00 -2.6798270866113E-01  6.0457600833638E-01
   155  1.5400000000000E+00 -2.5031458891600E-01  5.8368147994609E-01
   156  1.5500000000000E+00 -2.3284316674214E-01  5.6328438759974E-01
   157  1.5600000000000E+00 -2.1561467065344E-01  5.4338964862614E-01
   158  1.5700000000000E+00 -1.9867312023560E-01  5.2400073217287E-01
   159  1.5800000000000E+00 -1.8206015087691E-01  5.0512034479871E-01
   160  1.5900000000000E+00 -1.6581484646721E-01  4.8675114934456E-01
   161  1.6000000000000E+00 -1.4997358070409E-01  4.6889651313231E-01
   162  1.6100000000000E+00 -1.3456986758074E-01  4.5156128167163E-01
   163  1.6200000000000E+00 -1.1963422166116E-01  4.3475257271889E-01
   164  1.6300000000000E+00 -1.0519402852416E-01  4.1848058822199E-01
   165  1.6400000000000E+00 -9.1273459150606E-02  4.0275894220013E-01
   166  1.6500000000000E+00 -7.7893734150328E-02  3.8760008499623E-01
   167  1.6600000000000E+00 -6.5073442517812E-02  3.7301063731130E-01
   168  1.6700000000000E+00 -5.2828570245471E-02  3.5899149980263E-01
   169  1.6800000000000E+00 -4.1172508491530E-02  3.4553842317251E-01
   170  1.6900000000000E+00 -3.0116071231604E-02  3.3264257420045E-01
   171  1.7000000000000E+00 -1.9667522447470E-02  3.2029109307930E-01
   172  1.7100000000000E+00 -9.8326128288400E-03  3.0846763817285E-01
   173  1.7200000000000E+00 -6.1462584929383E-04  2.9715291535065E-01
   174  1.7300000000000E+00  7.9855669681953E-03  2.8632518909007E-01
   175  1.7400000000000E+00  1.5969441836875E-02  2.7596077276220E-01
   176  1.7500000000000E+00  2.3340749838739E-02  2.6603449576327E-01
   177  1.7600000000000E+00  3.0105435752955E-02  2.5652014540609E-01
   178  1.7700000000000E+00  3.6271548980090E-02  2.4739088174696E-01
   179  1.7800000000000E+00  4.1849147010420E-02  2.3861962379021E-01
   180  1.7900000000000E+00  4.6850191930242E-02  2.3017940578357E-01
   181  1.8000000000000E+00  5.1288440502479E-02  2.2204370258934E-01
   182  1.8100000000000E+00  5.5179328396770E-02  2.1418672338785E-01
   183  1.8200000000000E+00  5.8539849179539E-02  2.0658367323892E-01
   184  1.8300000000000E+00  6.1388428705752E-02  1.9921098229124E-01
   185  1.8400000000000E+00  6.3744795581207E-02  1.9204650268737E-01
   186  1.8500000000000E+00  6.5629848386945E-02  1.8506967346164E-01
   187  1.8600000000000E+00  6.7065520375658E-02  1.7826165396715E-01
   188  1.8700000000000E+00  6.8074642363610E-02  1.7160542659662E-01
   189  1.8800000000000E+00  6.8680804550491E-02  1.6508586977527E-01
   190  1.8900000000000E+00  6.8908218003766E-02  1.5868980240439E-01
   191  1.9000000000000E+00  6.8781576543605E-02  1.5240600111692E-01
   192  1.9100000000000E+00  6.8325919758836E-02  1.4622519187574E-01
   193  1.9200000000000E+00  6.7566497874366E-02  1.4014001759250E-01
   194  1.9300000000000E+00  6.6528639175606E-02  1.3414498357632E-01
   195  1.9400000000000E+00  6.5237620676036E-02  1.2823638273283E-01
   196  1.9500000000000E+00  6.3718542690247E-02  1.2241220252610E-01
   197  1.9600000000000E+00  6.1996207946626E-02  1.1667201578745E-01
   198  1.9700000000000E+00  6.0095005841329E-02  1.1101685750714E-01
   199  1.9800000000000E+00  5.8038802400475E-02  1.0544908977679E-01
   200  1.9900000000000E+00  5.5850836475895E-02  9.9972257062888E-02
   201  2.0000000000000E+00  5.3553622658318E-02  9.4590933983836E-02
   202  2.0100000000000E+00  5.1168861345317E-02  8.9310567737431E-02
   203  2.0200000000000E+00  4.8717356352941E-02  8.4137317281833E-02
   204  2.0300000000000E+00  4.6218940407519E-02  7.9077891308973E-02
   205  2.0400000000000E+00  4.3692408804262E-02  7.4139386976951E-02
   206  2.0500000000000E+00  4.1155461460843E-02  6.9329131269312E-02
   207  2.0600000000000E+00  3.8624653540113E-02  6.4654526744042E-02
   208  2.0700000000000E+00  3.6115354759020E-02  6.0122903315416E-02
   209  2.0800000000000E+00  3.3641717442859E-02  5.5741377578875E-02
   210  2.0900000000000E+00  3.1216653326098E-02  5.1516721045733E-02
   211  2.1000000000000E+00  2.8851819046838E-02  4.7455238513743E-02
   212  2.1100000000000E+00  2.6557610220004E-02  4.3562657626717E-02
   213  2.1200000000000E+00  2.4343163923442E-02  3.9844030526184E-02
   214  2.1300000000000E+00  2.2216369374702E-02  3.6303648324989E-02
   215  2.1400000000000E+00  2.0183886524367E-02  3.2944968964320E-02
   216  2.1500000000000E+00  1.8251172244366E-02  2.9770558856189E-02
   217  2.1600000000000E+00  1.6422513736662E-02  2.6782048525361E-02
   218  2.1700000000000E+00  1.4701068748053E-02  2.3980102316355E-02
   219  2.1800000000000E+00  1.3088912131480E-02  2.1364402054421E-02
   220  2.1900000000000E+00  1.1587088260585E-02  1.8933644412337E-02
   221  2.2000000000000E+00  1.0195668764736E-02  1.6685551564067E-02
   222  2.2100000000000E+00  8.9138150237254E-03  1.4616894574575E-02
   223  2.2200000000000E+00  7.7398448342729E-03  1.2723528839629E-02
   224  2.2300000000000E+00  6.6713026392089E-03  1.1000440772230E-02
   225  2.2400000000000E+00  5.7050326911345E-03  9.4418048186286E-03
   226  2.2500000000000E+00  4.8372545087776E-03  8.0410497816320E-03
   227  2.2600000000000E+00  4.0636399769654E-03  6.7909333508479E-03
   228  2.2700000000000E+00  3.3793914367657E-03  5.6836236668972E-03
   229  2.2800000000000E+00  2.7793201960770E-03  4.7107884980847E-03
   230  2.2900000000000E+00  2.2579243792303E-03  3.8636814354458E-03
   231  2.3000000000000E+00  1.8094651141591E-03  3.1332169492367E-03
   232  2.3100000000000E+00  1.4280479546031E-03  2.5101837400925E-03
   233  2.3200000000000E+00  1.1076853960391E-03  1.9851377433500E-03
   234  2.3300000000000E+00  8.4232693587712E-04  1.5475938024985E-03
   235  2.3400000000000E+00  6.2581802453024E-04  1.1836636584480E-03
   236  2.3500000000000E+00  4.5231378261151E-04  8.8369095394120E-04
   237  2.3600000000000E+00  3.1629265909445E-04  6.4150184458199E-04
   238  2.3700000000000E+00  2.1239855641582E-04  4.5007984888852E-04
   239  2.3800000000000E+00  1.3554279585562E-04  3.0269030043539E-04
   240  2.3900000000000E+00  8.0941910669107E-05  1.9280355632170E-04
   241  2.4000000000000E+00  4.4158186840912E-05  1.1419149754669E-04
   242  2.4100000000000E+00  2.1130983069377E-05  6.0984293921236E-05
   243  2.4200000000000E+00  8.2114519829268E-06  2.7700955816353E-05
   244  2.4300000000000E+00  2.1690623694362E-06  9.3466069368902E-06
   245  2.4400000000000E+00  2.1626690021692E-07  1.6607534443993E-06
   246  2.4500000000000E+00 -4.4595229016595E-09 -1.0450226316027E-07
   247  2.4600000000000E+00  6.2757033698609E-09 -6.0354556846720E-08
   248  2.47  0.  0.
   249  2.48 -0. -0.
   250  2.49 -0. -0.
   251  2.50  0. -0.
   252  2.51  0.  0.
   253  2.52  0.  0.
   254  2.53  0.  0.
   255  2.54  0.  0.
   256  2.55  0.  0.
   257  2.56  0.  0.
   258  2.57  0.  0.
   259  2.58  0.  0.
   260  2.59  0.  0.
   261  2.60  0.  0.
   262  2.61  0.  0.
   263  2.62  0.  0.
   264  2.63  0.  0.
   265  2.64  0.  0.
   266  2.65  0.  0.
   267  2.66  0.  0.
   268  2.67  0.  0.
   269  2.68  0.  0.
   270  2.69  0.  0.
   271  2.70  0.  0.
   272  2.71  0.  0.
   273  2.72  0.  0.
   274  2.73  0.  0.
   275  2.74  0.  0.
   276  2.75  0.  0.
   277  2.76  0.  0.
   278  2.77  0.  0.
   279  2.78  0.  0.
   280  2.79  0.  0.
   281  2.80  0.  0.
   282  2.81  0.  0.
   283  2.82  0.  0.
   284  2.83  0.  0.
   285  2.84  0.  0.
   286  2.85  0.  0.
   287  2.86  0.  0.
   288  2.87  0.  0.
   289  2.88  0.  0.
   290  2.89  0.  0.
   291  2.90  0.  0.
   292  2.91  0.  0.
   293  2.92  0.  0.
   294  2.93  0.  0.
   295  2.94  0.  0.
   296  2.95  0.  0.
   297  2.96  0.  0.
   298  2.97  0.  0.
   299  2.98  0.  0.
   300  2.99  0.  0.
   301  3.00  0.  0.
   302  3.01  0.  0.
   303  3.02  0.  0.
   304  3.03  0.  0.
   305  3.04  0.  0.
   306  3.05  0.  0.
   307  3.06  0.  0.
   308  3.07  0.  0.
   309  3.08  0.  0.
   310  3.09  0.  0.
   311  3.10  0.  0.
   312  3.11  0.  0.
   313  3.12  0.  0.
   314  3.13  0.  0.
   315  3.14  0.  0.
   316  3.15  0.  0.
   317  3.16  0.  0.
   318  3.17  0.  0.
   319  3.18  0.  0.
   320  3.19  0.  0.
   321  3.20  0.  0.
   322  3.21  0.  0.
   323  3.22  0.  0.
   324  3.23  0.  0.
   325  3.24  0.  0.
   326  3.25  0.  0.
   327  3.26  0.  0.
   328  3.27  0.  0.
   329  3.28  0.  0.
   330  3.29  0.  0.
   331  3.30  0.  0.
   332  3.31  0.  0.
   333  3.32  0.  0.
   334  3.33  0.  0.
   335  3.34  0.  0.
   336  3.35  0.  0.
   337  3.36  0.  0.
   338  3.37  0.  0.
   339  3.38  0.  0.
   340  3.39  0.  0.
   341  3.40  0.  0.
   342  3.41  0.  0.
   343  3.42  0.  0.
   344  3.43  0.  0.
   345  3.44  0.  0.
   346  3.45  0.  0.
   347  3.46  0.  0.
   348  3.47  0.  0.
   349  3.48  0.  0.
   350  3.49  0.  0.
   351  3.50  0.  0.
   352  3.51  0.  0.
   353  3.52  0.  0.
   354  3.53  0.  0.
   355  3.54  0.  0.
   356  3.55  0.  0.
   357  3.56  0.  0.
   358  3.57  0.  0.
   359  3.58  0.  0.
   360  3.59  0.  0.
   361  3.60  0.  0.
   362  3.61  0.  0.
   363  3.62  0.  0.
   364  3.63  0.  0.
   365  3.64  0.  0.
   366  3.65  0.  0.
   367  3.66  0.  0.
   368  3.67  0.  0.
   369  3.68  0.  0.
   370  3.69  0.  0.
   371  3.70  0.  0.
   372  3.71  0.  0.
   373  3.72  0.  0.
   374  3.73  0.  0.
   375  3.74  0.  0.
   376  3.75  0.  0.
   377  3.76  0.  0.
   378  3.77  0.  0.
   379  3.78  0.  0.
   380  3.79  0.  0.
   381  3.80  0.  0.
   382  3.81  0.  0.
   383  3.82  0.  0.
   384  3.83  0.  0.
   385  3.84  0.  0.
   386  3.85  0.  0.
   387  3.86  0.  0.
   388  3.87  0.  0.
   389  3.88  0.  0.
   390  3.89  0.  0.
   391  3.90  0.  0.
   392  3.91  0.  0.
   393  3.92  0.  0.
   394  3.93  0.  0.
   395  3.94  0.  0.
   396  3.95  0.  0.
   397  3.96  0.  0.
   398  3.97  0.  0.
   399  3.98  0.  0.
   400  3.99  0.  0.
   401  4.00  0.  0.
   402  4.01  0.  0.
   403  4.02  0.  0.
   404  4.03  0.  0.
   405  4.04  0.  0.
   406  4.05  0.  0.
   407  4.06  0.  0.
   408  4.07  0.  0.
   409  4.08  0.  0.
   410  4.09  0.  0.
   411  4.10  0.  0.
   412  4.11  0.  0.
   413  4.12  0.  0.
   414  4.13  0.  0.
   415  4.14  0.  0.
   416  4.15  0.  0.
   417  4.16  0.  0.
   418  4.17  0.  0.
   419  4.18  0.  0.
   420  4.19  0.  0.
   421  4.20  0.  0.
   422  4.21  0.  0.
   423  4.22  0.  0.
   424  4.23  0.  0.
   425  4.24  0.  0.
   426  4.25  0.  0.
   427  4.26  0.  0.
   428  4.27  0.  0.
   429  4.28  0.  0.
   430  4.29  0.  0.
   431  4.30  0.  0.
   432  4.31  0.  0.
   433  4.32  0.  0.
   434  4.33  0.  0.
   435  4.34  0.  0.
   436  4.35  0.  0.
   437  4.36  0.  0.
   438  4.37  0.  0.
   439  4.38  0.  0.
   440  4.39  0.  0.
   441  4.40  0.  0.
   442  4.41  0.  0.
   443  4.42  0.  0.
   444  4.43  0.  0.
   445  4.44  0.  0.
   446  4.45  0.  0.
   447  4.46  0.  0.
   448  4.47  0.  0.
   449  4.48  0.  0.
   450  4.49  0.  0.
   451  4.50  0.  0.
   452  4.51  0.  0.
   453  4.52  0.  0.
   454  4.53  0.  0.
   455  4.54  0.  0.
   456  4.55  0.  0.
   457  4.56  0.  0.
   458  4.57  0.  0.
   459  4.58  0.  0.
   460  4.59  0.  0.
   461  4.60  0.  0.
   462  4.61  0.  0.
   463  4.62  0.  0.
   464  4.63  0.  0.
   465  4.64  0.  0.
   466  4.65  0.  0.
   467  4.66  0.  0.
   468  4.67  0.  0.
   469  4.68  0.  0.
   470  4.69  0.  0.
   471  4.70  0.  0.
   472  4.71  0.  0.
   473  4.72  0.  0.
   474  4.73  0.  0.
   475  4.74  0.  0.
   476  4.75  0.  0.
   477  4.76  0.  0.
   478  4.77  0.  0.
   479  4.78  0.  0.
   480  4.79  0.  0.
   481  4.80  0.  0.
   482  4.81  0.  0.
   483  4.82  0.  0.
   484  4.83  0.  0.
   485  4.84  0.  0.
   486  4.85  0.  0.
   487  4.86  0.  0.
   488  4.87  0.  0.
   489  4.88  0.  0.
   490  4.89  0.  0.
   491  4.90  0.  0.
   492  4.91  0.  0.
   493  4.92  0.  0.
   494  4.93  0.  0.
   495  4.94  0.  0.
   496  4.95  0.  0.
   497  4.96  0.  0.
   498  4.97  0.  0.
   499  4.98  0.  0.
   500  4.99  0.  0.
   501  5.00  0.  0.
   502  5.01  0.  0.
   503  5.02  0.  0.
   504  5.03  0.  0.
   505  5.04  0.  0.
   506  5.05  0.  0.
   507  5.06  0.  0.
   508  5.07  0.  0.
   509  5.08  0.  0.
   510  5.09  0.  0.
   511  5.10  0.  0.
   512  5.11  0.  0.
   513  5.12  0.  0.
   514  5.13  0.  0.
   515  5.14  0.  0.
   516  5.15  0.  0.
   517  5.16  0.  0.
   518  5.17  0.  0.
   519  5.18  0.  0.
   520  5.19  0.  0.
   521  5.20  0.  0.
   522  5.21  0.  0.
   523  5.22  0.  0.
   524  5.23  0.  0.
   525  5.24  0.  0.
   526  5.25  0.  0.
   527  5.26  0.  0.
   528  5.27  0.  0.
   529  5.28  0.  0.
   530  5.29  0.  0.
   531  5.30  0.  0.
   532  5.31  0.  0.
   533  5.32  0.  0.
   534  5.33  0.  0.
   535  5.34  0.  0.
   536  5.35  0.  0.
   537  5.36  0.  0.
   538  5.37  0.  0.
   539  5.38  0.  0.
   540  5.39  0.  0.
   541  5.40  0.  0.
   542  5.41  0.  0.
   543  5.42  0.  0.
   544  5.43  0.  0.
   545  5.44  0.  0.
   546  5.45  0.  0.
   547  5.46  0.  0.
   548  5.47  0.  0.
   549  5.48  0.  0.
   550  5.49  0.  0.
   551  5.50  0.  0.
   552  5.51  0.  0.
   553  5.52  0.  0.
   554  5.53  0.  0.
   555  5.54  0.  0.
   556  5.55  0.  0.
   557  5.56  0.  0.
   558  5.57  0.  0.
   559  5.58  0.  0.
   560  5.59  0.  0.
   561  5.60  0.  0.
   562  5.61  0.  0.
   563  5.62  0.  0.
   564  5.63  0.  0.
   565  5.64  0.  0.
   566  5.65  0.  0.
   567  5.66  0.  0.
   568  5.67  0.  0.
   569  5.68  0.  0.
   570  5.69  0.  0.
   571  5.70  0.  0.
   572  5.71  0.  0.
   573  5.72  0.  0.
   574  5.73  0.  0.
   575  5.74  0.  0.
   576  5.75  0.  0.
   577  5.76  0.  0.
   578  5.77  0.  0.
   579  5.78  0.  0.
   580  5.79  0.  0.
   581  5.80  0.  0.
   582  5.81  0.  0.
   583  5.82  0.  0.
   584  5.83  0.  0.
   585  5.84  0.  0.
   586  5.85  0.  0.
   587  5.86  0.  0.
   588  5.87  0.  0.
   589  5.88  0.  0.
   590  5.89  0.  0.
   591  5.90  0.  0.
   592  5.91  0.  0.
   593  5.92  0.  0.
   594  5.93  0.  0.
   595  5.94  0.  0.
   596  5.95  0.  0.
   597  5.96  0.  0.
   598  5.97  0.  0.
   599  5.98  0.  0.
   600  5.99  0.  0.
   1                        -1.1953781736858E+00 -2.8349224396928E-01
     1  0.0000000000000E+00  6.0140701446665E-11 -4.6308955628516E-10
     2  1.0000000000000E-02  4.6381008417833E-04 -3.0989298684591E-04
     3  2.0000000000000E-02  1.8545614492736E-03 -1.2373535904511E-03
     4  3.0000000000000E-02  4.1702202847576E-03 -2.7757500513870E-03
     5  4.0000000000000E-02  7.4074063794241E-03 -4.9141068902895E-03
     6  5.0000000000000E-02  1.1561407215679E-02 -7.6372202082828E-03
     7  6.0000000000000E-02  1.6626197472550E-02 -1.0925817359345E-02
     8  7.0000000000000E-02  2.2594463711355E-02 -1.4756759266374E-02
     9  8.0000000000000E-02  2.9457633957819E-02 -1.9103283189632E-02
    10  9.0000000000000E-02  3.7205911837286E-02 -2.3935283313543E-02
    11  1.0000000000000E-01  4.5828314866481E-02 -2.9219626102338E-02
    12  1.1000000000000E-01  5.5312716456430E-02 -3.4920496989322E-02
    13  1.2000000000000E-01  6.5645891137317E-02 -4.0999774614091E-02
    14  1.3000000000000E-01  7.6813562477745E-02 -4.7417428508561E-02
    15  1.4000000000000E-01  8.8800453138561E-02 -5.4131935861509E-02
    16  1.5000000000000E-01  1.0159033647530E-01 -6.1100712763053E-02
    17  1.6000000000000E-01  1.1516608908418E-01 -6.8280555150548E-02
    18  1.7000000000000E-01  1.2950974367420E-01 -7.5628084543577E-02
    19  1.8000000000000E-01  1.4460254164262E-01 -8.3100193574566E-02
    20  1.9000000000000E-01  1.6042498473372E-01 -9.0654486289710E-02
    21  2.0000000000000E-01  1.7695688516967E-01 -9.8249708215730E-02
    22  2.1000000000000E-01  1.9417741365979E-01 -1.0584616126072E-01
    23  2.2000000000000E-01  2.1206514471834E-01 -1.1340609864114E-01
    24  2.3000000000000E-01  2.3059809875219E-01 -1.2089409520202E-01
    25  2.4000000000000E-01  2.4975378041793E-01 -1.2827738872114E-01
    26  2.5000000000000E-01  2.6950921279251E-01 -1.3552618805963E-01
    27  2.6000000000000E-01  2.8984096695222E-01 -1.4261394433776E-01
    28  2.7000000000000E-01  3.1072518661110E-01 -1.4951758167328E-01
    29  2.8000000000000E-01  3.3213760753197E-01 -1.5621768441825E-01
    30  2.9000000000000E-01  3.5405357148867E-01 -1.6269863826314E-01
    31  3.0000000000000E-01  3.7644803462904E-01 -1.6894872304250E-01
    32  3.1000000000000E-01  3.9929557016121E-01 -1.7496015556885E-01
    33  3.2000000000000E-01  4.2257036536180E-01 -1.8072908133658E-01
    34  3.3000000000000E-01  4.4624621298282E-01 -1.8625551447086E-01
    35  3.4000000000000E-01  4.7029649721254E-01 -1.9154322584235E-01
    36  3.5000000000000E-01  4.9469417442507E-01 -1.9659957982237E-01
    37  3.6000000000000E-01  5.1941174903176E-01 -2.0143532070868E-01
    38  3.7000000000000E-01  5.4442124482473E-01 -2.0606431040533E-01
    39  3.8000000000000E-01  5.6969417227757E-01 -2.1050321948380E-01
    40  3.9000000000000E-01  5.9520149234026E-01 -2.1477117428323E-01
    41  4.0000000000000E-01  6.2091357733307E-01 -2.1888936321841E-01
    42  4.1000000000000E-01  6.4680016960757E-01 -2.2288060595085E-01
    43  4.2000000000000E-01  6.7283033870064E-01 -2.2676888953495E-01
    44  4.3000000000000E-01  6.9897243775928E-01 -2.3057887607411E-01
    45  4.4000000000000E-01  7.2519406005861E-01 -2.3433538680542E-01
    46  4.5000000000000E-01  7.5146199647337E-01 -2.3806286787214E-01
    47  4.6000000000000E-01  7.7774219479271E-01 -2.4178484333670E-01
    48  4.7000000000000E-01  8.0399972178892E-01 -2.4552336123068E-01
    49  4.8000000000000E-01  8.3019872896368E-01 -2.4929843862764E-01
    50  4.9000000000000E-01  8.5630242289800E-01 -2.5312751185861E-01
    51  5.0000000000000E-01  8.8227304112606E-01 -2.5702489806585E-01
    52  5.1000000000000E-01  9.0807183443708E-01 -2.6100127430649E-01
    53  5.2000000000000E-01  9.3365905648401E-01 -2.6506318037298E-01
    54  5.3000000000000E-01  9.5899396154228E-01 -2.6921255139187E-01
    55  5.4000000000000E-01  9.8403481121726E-01 -2.7344628609545E-01
    56  5.5000000000000E-01  1.0087388908447E+00 -2.7775585643417E-01
    57  5.6000000000000E-01  1.0330625362652E+00 -2.8212696391145E-01
    58  5.7000000000000E-01  1.0569611715817E+00 -2.8653924767942E-01
    59  5.8000000000000E-01  1.0803893584278E+00 -2.9096604903626E-01
    60  5.9000000000000E-01  1.1033008571895E+00 -2.9537423651555E-01
    61  6.0000000000000E-01  1.1256487005224E+00 -2.9972409525978E-01
    62  6.1000000000000E-01  1.1473852794117E+00 -3.0396928382763E-01
    63  6.2000000000000E-01  1.1684624419087E+00 -3.0805686100127E-01
    64  6.3000000000000E-01  1.1888316045702E+00 -3.1192738454192E-01
    65  6.4000000000000E-01  1.2084438765096E+00 -3.1551508319387E-01
    66  6.5000000000000E-01  1.2272501958486E+00 -3.1874810256464E-01
    67  6.6000000000000E-01  1.2452014782416E+00 -3.2154882481779E-01
    68  6.7000000000000E-01  1.2622487770184E+00 -3.2383426141169E-01