Al    ONCVPSP-4.0.1  r_core=   2.40380   2.40380   2.66112
     13.0000      3.0000      200425    zatom,zion,pspd
     8       2   2     4   600     0    pspcod,pspxc,lmax,lloc,mmax,r2well
  5.99000000  0.00000000  0.00000000    rchrg fchrg qchrg
     2     2     2     0     0    nproj
     1     1           extension_switch
   0                         2.8580498779214E+00  1.8498132460195E-01
     1  0.0000000000000E+00  8.2361895081817E-13  2.1873058919653E-12
     2  1.0000000000000E-02  3.0018869558387E-02 -1.7830871441282E-02
     3  2.0000000000000E-02  6.0017370684392E-02 -3.5625837566438E-02
     4  3.0000000000000E-02  8.9975154232327E-02 -5.3349084075730E-02
     5  4.0000000000000E-02  1.1987190962198E-01 -7.0964978420001E-02
     6  5.0000000000000E-02  1.4968738410134E-01 -8.8438159970992E-02
     7  6.0000000000000E-02  1.7940140198480E-01 -1.0573362934719E-01
     8  7.0000000000000E-02  2.0899388385746E-01 -1.2281683661615E-01
     9  8.0000000000000E-02  2.3844486573577E-01 -1.3965376809651E-01
    10  9.0000000000000E-02  2.6773451817329E-01 -1.5621103148543E-01
    11  1.0000000000000E-01  2.9684316529934E-01 -1.7245593904067E-01
    12  1.1000000000000E-01  3.2575130377712E-01 -1.8835658855032E-01
    13  1.2000000000000E-01  3.5443962166602E-01 -2.0388194182782E-01
    14  1.3000000000000E-01  3.8288901717149E-01 -2.1900190047490E-01
    15  1.4000000000000E-01  4.1108061726403E-01 -2.3368737866118E-01
    16  1.5000000000000E-01  4.3899579614711E-01 -2.4791037267559E-01
    17  1.6000000000000E-01  4.6661619355170E-01 -2.6164402701209E-01
    18  1.7000000000000E-01  4.9392373283365E-01 -2.7486269676039E-01
    19  1.8000000000000E-01  5.2090063884773E-01 -2.8754200608099E-01
    20  1.9000000000000E-01  5.4752945557076E-01 -2.9965890255390E-01
    21  2.0000000000000E-01  5.7379306344392E-01 -3.1119170720066E-01
    22  2.1000000000000E-01  5.9967469640297E-01 -3.2212015999083E-01
    23  2.2000000000000E-01  6.2515795856322E-01 -3.3242546065641E-01
    24  2.3000000000000E-01  6.5022684052461E-01 -3.4209030465091E-01
    25  2.4000000000000E-01  6.7486573526077E-01 -3.5109891410365E-01
    26  2.5000000000000E-01  6.9905945355504E-01 -3.5943706363544E-01
    27  2.6000000000000E-01  7.2279323894488E-01 -3.6709210091694E-01
    28  2.7000000000000E-01  7.4605278213592E-01 -3.7405296186872E-01
    29  2.8000000000000E-01  7.6882423484585E-01 -3.8031018041904E-01
    30  2.9000000000000E-01  7.9109422303847E-01 -3.8585589275439E-01
    31  3.0000000000000E-01  8.1284985950789E-01 -3.9068383601705E-01
    32  3.1000000000000E-01  8.3407875577354E-01 -3.9478934142441E-01
    33  3.2000000000000E-01  8.5476903324684E-01 -3.9816932180529E-01
    34  3.3000000000000E-01  8.7490933363180E-01 -4.0082225357075E-01
    35  3.4000000000000E-01  8.9448882852264E-01 -4.0274815315855E-01
    36  3.5000000000000E-01  9.1349722816339E-01 -4.0394854801380E-01
    37  3.6000000000000E-01  9.3192478933627E-01 -4.0442644219123E-01
    38  3.7000000000000E-01  9.4976232234784E-01 -4.0418627668833E-01
    39  3.8000000000000E-01  9.6700119708472E-01 -4.0323388464268E-01
    40  3.9000000000000E-01  9.8363334811321E-01 -4.0157644155057E-01
    41  4.0000000000000E-01  9.9965127880067E-01 -3.9922241068863E-01
    42  4.1000000000000E-01  1.0150480644399E+00 -3.9618148394378E-01
    43  4.2000000000000E-01  1.0298173543617E+00 -3.9246451828122E-01
    44  4.3000000000000E-01  1.0439533730237E+00 -3.8808346810328E-01
    45  4.4000000000000E-01  1.0574509200708E+00 -3.8305131377535E-01
    46  4.5000000000000E-01  1.0703053693626E+00 -3.7738198661755E-01
    47  4.6000000000000E-01  1.0825126669716E+00 -3.7109029068236E-01
    48  4.7000000000000E-01  1.0940693281597E+00 -3.6419182165931E-01
    49  4.8000000000000E-01  1.1049724333438E+00 -3.5670288326772E-01
    50  4.9000000000000E-01  1.1152196230686E+00 -3.4864040151679E-01
    51  5.0000000000000E-01  1.1248090920091E+00 -3.4002183722948E-01
    52  5.1000000000000E-01  1.1337395820287E+00 -3.3086509724263E-01
    53  5.2000000000000E-01  1.1420103743262E+00 -3.2118844470921E-01
    54  5.3000000000000E-01  1.1496212807092E+00 -3.1101040894138E-01
    55  5.4000000000000E-01  1.1565726340345E+00 -3.0034969524269E-01
    56  5.5000000000000E-01  1.1628652778637E+00 -2.8922509518667E-01
    57  5.6000000000000E-01  1.1685005553852E+00 -2.7765539780422E-01
    58  5.7000000000000E-01  1.1734802976572E+00 -2.6565930214699E-01
    59  5.8000000000000E-01  1.1778068112318E+00 -2.5325533169428E-01
    60  5.9000000000000E-01  1.1814828652249E+00 -2.4046175107063E-01
    61  6.0000000000000E-01  1.1845116778963E+00 -2.2729648553709E-01
    62  6.1000000000000E-01  1.1868969028117E+00 -2.1377704371342E-01
    63  6.2000000000000E-01  1.1886426146583E+00 -1.9992044397886E-01
    64  6.3000000000000E-01  1.1897532947890E+00 -1.8574314498808E-01
    65  6.4000000000000E-01  1.1902338165709E+00 -1.7126098072423E-01
    66  6.5000000000000E-01  1.1900894306170E+00 -1.5648910049421E-01
    67  6.6000000000000E-01  1.1893257499780E+00 -1.4144191425111E-01
    68  6.7000000000000E-01  1.1879487353747E+00 -1.2613304360706E-01
    69  6.8000000000000E-01  1.1859646805475E+00 -1.1057527887414E-01
    70  6.9000000000000E-01  1.1833801978019E+00 -9.4780542443813E-02
    71  7.0000000000000E-01  1.1802022038261E+00 -7.8759858785208E-02
    72  7.1000000000000E-01  1.1764379058537E+00 -6.2523331310657E-02
    73  7.2000000000000E-01  1.1720947882454E+00 -4.6080126321905E-02
    74  7.3000000000000E-01  1.1671805995558E+00 -2.9438464214449E-02
    75  7.4000000000000E-01  1.1617033401534E+00 -1.2605618078504E-02
    76  7.5000000000000E-01  1.1556712504519E+00  4.4120802042940E-03
    77  7.6000000000000E-01  1.1490927998119E+00  2.1609226312065E-02
    78  7.7000000000000E-01  1.1419766761624E+00  3.8981322266801E-02
    79  7.8000000000000E-01  1.1343317763896E+00  5.6524747682207E-02
    80  7.9000000000000E-01  1.1261671975315E+00  7.4236723549233E-02
    81  8.0000000000000E-01  1.1174922288130E+00  9.2115268679989E-02
    82  8.1000000000000E-01  1.1083163445482E+00  1.1015914897587E-01
    83  8.2000000000000E-01  1.0986491979296E+00  1.2836781973162E-01
    84  8.3000000000000E-01  1.0885006157164E+00  1.4674136123281E-01
    85  8.4000000000000E-01  1.0778805938289E+00  1.6528040794928E-01
    86  8.5000000000000E-01  1.0667992938440E+00  1.8398607167141E-01
    87  8.6000000000000E-01  1.0552670403842E+00  2.0285985897927E-01
    88  8.7000000000000E-01  1.0432943193796E+00  2.2190358347684E-01
    89  8.8000000000000E-01  1.0308917771794E+00  2.4111927326336E-01
    90  8.9000000000000E-01  1.0180702204769E+00  2.6050907415270E-01
    91  9.0000000000000E-01  1.0048406170087E+00  2.8007514918704E-01
    92  9.1000000000000E-01  9.9121409697803E-01  2.9981957502564E-01
    93  9.2000000000000E-01  9.7720195514593E-01  3.1974423581945E-01
    94  9.3000000000000E-01  9.6281565352805E-01  3.3985071521095E-01
    95  9.4000000000000E-01  9.4806682462608E-01  3.6014018712268E-01
    96  9.5000000000000E-01  9.3296727511817E-01  3.8061330601949E-01
    97  9.6000000000000E-01  9.1752898992607E-01  4.0127009734689E-01
    98  9.7000000000000E-01  9.0176413657132E-01  4.2210984886156E-01
    99  9.8000000000000E-01  8.8568506972836E-01  4.4313100357962E-01
   100  9.9000000000000E-01  8.6930433587775E-01  4.6433105507435E-01
   101  1.0000000000000E+00  8.5263467795913E-01  4.8570644585521E-01
   102  1.0100000000000E+00  8.3568903992087E-01  5.0725246955794E-01
   103  1.0200000000000E+00  8.1848057106042E-01  5.2896317766727E-01
   104  1.0300000000000E+00  8.0102263004862E-01  5.5083129148170E-01
   105  1.0400000000000E+00  7.8332878852949E-01  5.7284812001355E-01
   106  1.0500000000000E+00  7.6541283418788E-01  5.9500348449596E-01
   107  1.0600000000000E+00  7.4728877317729E-01  6.1728565014319E-01
   108  1.0700000000000E+00  7.2897083180220E-01  6.3968126578032E-01
   109  1.0800000000000E+00  7.1047345735142E-01  6.6217531192460E-01
   110  1.0900000000000E+00  6.9181131798199E-01  6.8475105786181E-01
   111  1.1000000000000E+00  6.7299930155723E-01  7.0739002821862E-01
   112  1.1100000000000E+00  6.5405251334710E-01  7.3007197948591E-01
   113  1.1200000000000E+00  6.3498627250468E-01  7.5277488689752E-01
   114  1.1300000000000E+00  6.1581610723839E-01  7.7547494201626E-01
   115  1.1400000000000E+00  5.9655774860699E-01  7.9814656132174E-01
   116  1.1500000000000E+00  5.7722712287158E-01  8.2076240603593E-01
   117  1.1600000000000E+00  5.5784034234708E-01  8.4329341336045E-01
   118  1.1700000000000E+00  5.3841369470490E-01  8.6570883923475E-01
   119  1.1800000000000E+00  5.1896363068709E-01  8.8797631265973E-01
   120  1.1900000000000E+00  4.9950675020296E-01  9.1006190156297E-01
   121  1.2000000000000E+00  4.8005978678881E-01  9.3193019011343E-01
   122  1.2100000000000E+00  4.6063959042240E-01  9.5354436732472E-01
   123  1.2200000000000E+00  4.4126310869456E-01  9.7486632671622E-01
   124  1.2300000000000E+00  4.2194736635168E-01  9.9585677673180E-01
   125  1.2400000000000E+00  4.0270944323409E-01  1.0164753615477E+00
   126  1.2500000000000E+00  3.8356645064692E-01  1.0366807918326E+00
   127  1.2600000000000E+00  3.6453550621119E-01  1.0564309849566E+00
   128  1.2700000000000E+00  3.4563370725481E-01  1.0756832140826E+00
   129  1.2800000000000E+00  3.2687810281401E-01  1.0943942655081E+00
   130  1.2900000000000E+00  3.0828566432699E-01  1.1125206035696E+00
   131  1.3000000000000E+00  2.8987325511236E-01  1.1300185423621E+00
   132  1.3100000000000E+00  2.7165759873539E-01  1.1468444234749E+00
   133  1.3200000000000E+00  2.5365524637501E-01  1.1629547988944E+00
   134  1.3300000000000E+00  2.3588254331394E-01  1.1783066181808E+00
   135  1.3400000000000E+00  2.1835559468351E-01  1.1928574189829E+00
   136  1.3500000000000E+00  2.0109023060253E-01  1.2065655199229E+00
   137  1.3600000000000E+00  1.8410197085753E-01  1.2193902148486E+00
   138  1.3700000000000E+00  1.6740598927820E-01  1.2312919674278E+00
   139  1.3800000000000E+00  1.5101707796792E-01  1.2422326050399E+00
   140  1.3900000000000E+00  1.3494961155422E-01  1.2521755109052E+00
   141  1.4000000000000E+00  1.1921751162826E-01  1.2610858133845E+00
   142  1.4100000000000E+00  1.0383421154549E-01  1.2689305713815E+00
   143  1.4200000000000E+00  8.8812621761976E-02  1.2756789547842E+00
   144  1.4300000000000E+00  7.4165095881640E-02  1.2813024188916E+00
   145  1.4400000000000E+00  5.9903397590276E-02  1.2857748717913E+00
   146  1.4500000000000E+00  4.6038668650754E-02  1.2890728336755E+00
   147  1.4600000000000E+00  3.2581398131978E-02  1.2911755871131E+00
   148  1.4700000000000E+00  1.9541393041065E-02  1.2920653173326E+00
   149  1.4800000000000E+00  6.9277505238325E-03  1.2917272416105E+00
   150  1.4900000000000E+00 -5.2511682064677E-03  1.2901497269096E+00
   151  1.5000000000000E+00 -1.6987762058561E-02  1.2873243949640E+00
   152  1.5100000000000E+00 -2.8275212224480E-02  1.2832462140667E+00
   153  1.5200000000000E+00 -3.9107502174852E-02  1.2779135768790E+00
   154  1.5300000000000E+00 -4.9479435359448E-02  1.2713283636516E+00
   155  1.5400000000000E+00 -5.9386650494503E-02  1.2634959903168E+00
   156  1.5500000000000E+00 -6.8825634329186E-02  1.2544254409932E+00
   157  1.5600000000000E+00 -7.7793731795522E-02  1.2441292845194E+00
   158  1.5700000000000E+00 -8.6289153458465E-02  1.2326236747221E+00
   159  1.5800000000000E+00 -9.4310980195986E-02  1.2199283342089E+00
   160  1.5900000000000E+00 -1.0185916505281E-01  1.2060665215628E+00
   161  1.6000000000000E+00 -1.0893453222556E-01  1.1910649819102E+00
   162  1.6100000000000E+00 -1.1553877315180E-01  1.1749538809229E+00
   163  1.6200000000000E+00 -1.2167443969035E-01  1.1577667224075E+00
   164  1.6300000000000E+00 -1.2734493439541E-01  1.1395402497306E+00
   165  1.6400000000000E+00 -1.3255449790247E-01  1.1203143314172E+00
   166  1.6500000000000E+00 -1.3730819345926E-01  1.1001318313519E+00
   167  1.6600000000000E+00 -1.4161188865036E-01  1.0790384641053E+00
   168  1.6700000000000E+00 -1.4547223437930E-01  1.0570826359902E+00
   169  1.6800000000000E+00 -1.4889664118694E-01  1.0343152725409E+00
   170  1.6900000000000E+00 -1.5189325299952E-01  1.0107896331912E+00
   171  1.7000000000000E+00 -1.5447091841394E-01  9.8656111400113E-01
   172  1.7100000000000E+00 -1.5663915964162E-01  9.6168703936049E-01
   173  1.7200000000000E+00 -1.5840813924531E-01  9.3622644366404E-01
   174  1.7300000000000E+00 -1.5978862481545E-01  9.1023984401805E-01
   175  1.7400000000000E+00 -1.6079195174465E-01  8.8378900509692E-01
   176  1.7500000000000E+00 -1.6142998426920E-01  8.5693669732048E-01
   177  1.7600000000000E+00 -1.6171507495671E-01  8.2974644956958E-01
   178  1.7700000000000E+00 -1.6166002282750E-01  8.0228229769678E-01
   179  1.7800000000000E+00 -1.6127803030552E-01  7.7460853012177E-01
   180  1.7900000000000E+00 -1.6058265920074E-01  7.4678943182706E-01
   181  1.8000000000000E+00 -1.5958778593108E-01  7.1888902808677E-01
   182  1.8100000000000E+00 -1.5830755619564E-01  6.9097082927271E-01
   183  1.8200000000000E+00 -1.5675633931460E-01  6.6309757808403E-01
   184  1.8300000000000E+00 -1.5494868245254E-01  6.3533100054212E-01
   185  1.8400000000000E+00 -1.5289926494278E-01  6.0773156207925E-01
   186  1.8500000000000E+00 -1.5062285292934E-01  5.8035823002932E-01
   187  1.8600000000000E+00 -1.4813425454127E-01  5.5326824379983E-01
   188  1.8700000000000E+00 -1.4544827581052E-01  5.2651689396876E-01
   189  1.8800000000000E+00 -1.4257967754012E-01  5.0015731150658E-01
   190  1.8900000000000E+00 -1.3954313332326E-01  4.7424026827146E-01
   191  1.9000000000000E+00 -1.3635318890727E-01  4.4881398987026E-01
   192  1.9100000000000E+00 -1.3302422308746E-01  4.2392398191058E-01
   193  1.9200000000000E+00 -1.2957041030712E-01  3.9961287059992E-01
   194  1.9300000000000E+00 -1.2600568512885E-01  3.7592025857010E-01
   195  1.9400000000000E+00 -1.2234370873114E-01  3.5288259672261E-01
   196  1.9500000000000E+00 -1.1859783757169E-01  3.3053307280260E-01
   197  1.9600000000000E+00 -1.1478109434523E-01  3.0890151731710E-01
   198  1.9700000000000E+00 -1.1090614134956E-01  2.8801432731423E-01
   199  1.9800000000000E+00 -1.0698525635899E-01  2.6789440844465E-01
   200  1.9900000000000E+00 -1.0303031108807E-01  2.4856113561722E-01
   201  2.0000000000000E+00 -9.9052752313021E-02  2.3003033245909E-01
   202  2.0100000000000E+00 -9.5063585701438E-02  2.1231426968115E-01
   203  2.0200000000000E+00 -9.1073362384162E-02  1.9542168234178E-01
   204  2.0300000000000E+00 -8.7092168285905E-02  1.7935780589069E-01
   205  2.0400000000000E+00 -8.3129616214229E-02  1.6412443076757E-01
   206  2.0500000000000E+00 -7.9194840689384E-02  1.4971997522153E-01
   207  2.0600000000000E+00 -7.5296495479765E-02  1.3613957590690E-01
   208  2.0700000000000E+00 -7.1442753791440E-02  1.2337519570930E-01
   209  2.0800000000000E+00 -6.7641311043399E-02  1.1141574815223E-01
   210  2.0900000000000E+00 -6.3899390143367E-02  1.0024723763177E-01
   211  2.1000000000000E+00 -6.0223749164986E-02  8.9852914641166E-02
   212  2.1100000000000E+00 -5.6620691309864E-02  8.0213445042895E-02
   213  2.1200000000000E+00 -5.3096077025249E-02  7.1307092369626E-02
   214  2.1300000000000E+00 -4.9655338134016E-02  6.3109912051872E-02
   215  2.1400000000000E+00 -4.6303493820466E-02  5.5595956392828E-02
   216  2.1500000000000E+00 -4.3045168305361E-02  4.8737489052315E-02
   217  2.1600000000000E+00 -3.9884610030772E-02  4.2505207728024E-02
   218  2.1700000000000E+00 -3.6825712167480E-02  3.6868473678354E-02
   219  2.1800000000000E+00 -3.3872034248517E-02  3.1795546680680E-02
   220  2.1900000000000E+00 -3.1026824725910E-02  2.7253823983845E-02
   221  2.2000000000000E+00 -2.8293044241473E-02  2.3210081781662E-02
   222  2.2100000000000E+00 -2.5673389397952E-02  1.9630717712803E-02
   223  2.2200000000000E+00 -2.3170316814067E-02  1.6481992881431E-02
   224  2.2300000000000E+00 -2.0786067245258E-02  1.3730271889562E-02
   225  2.2400000000000E+00 -1.8522689597437E-02  1.1342259832299E-02
   226  2.2500000000000E+00 -1.6382064309382E-02  9.2852317184247E-03
   227  2.2600000000000E+00 -1.4365926190249E-02  7.5272574473654E-03
   228  2.2700000000000E+00 -1.2475890642742E-02  6.0374417642321E-03
   229  2.2800000000000E+00 -1.0713460266877E-02  4.7860582034710E-03
   230  2.2900000000000E+00 -9.0800437354409E-03  3.7445960972915E-03
   231  2.3000000000000E+00 -7.5769977403662E-03  2.8859793896672E-03
   232  2.3100000000000E+00 -6.2057490385149E-03  2.1858386135014E-03
   233  2.3200000000000E+00 -4.9676935424435E-03  1.6218758831400E-03
   234  2.3300000000000E+00 -3.8641430981537E-03  1.1735131224729E-03
   235  2.3400000000000E+00 -2.8963731741209E-03  8.2224179323743E-04
   236  2.3500000000000E+00 -2.0656310163136E-03  5.5171156835651E-04
   237  2.3600000000000E+00 -1.3731498271219E-03  3.4785458627644E-04
   238  2.3700000000000E+00 -8.2048789999000E-04  1.9905789683801E-04
   239  2.3800000000000E+00 -4.0623112329426E-04  9.5481078269272E-05
   240  2.3900000000000E+00 -1.3813737368026E-04  3.1885468894767E-05
   241  2.4000000000000E+00 -1.7187259264025E-05  4.0376189893152E-06
   242  2.4100000000000E+00  7.2799560969534E-06 -1.5575553906998E-06
   243  2.4200000000000E+00 -1.0311125544201E-06  2.2513700534497E-07
   244  2.4300 -0.  0.
   245  2.4400  0. -0.
   246  2.4500  0. -0.
   247  2.4600  0. -0.
   248  2.4700  0.  0.
   249  2.4800  0.  0.
   250  2.4900  0.  0.
   251  2.5000  0.  0.
   252  2.5100  0.  0.
   253  2.5200  0.  0.
   254  2.5300  0.  0.
   255  2.5400  0.  0.
   256  2.5500  0.  0.
   257  2.5600  0.  0.
   258  2.5700  0.  0.
   259  2.5800  0.  0.
   260  2.5900  0.  0.
   261  2.6000  0.  0.
   262  2.6100  0.  0.
   263  2.6200  0.  0.
   264  2.6300  0.  0.
   265  2.6400  0.  0.
   266  2.6500  0.  0.
   267  2.6600  0.  0.
   268  2.6700  0.  0.
   269  2.6800  0.  0.
   270  2.6900  0.  0.
   271  2.7000  0.  0.
   272  2.7100  0.  0.
   273  2.7200  0.  0.
   274  2.7300  0.  0.
   275  2.7400  0.  0.
   276  2.7500  0.  0.
   277  2.7600  0.  0.
   278  2.7700  0.  0.
   279  2.7800  0.  0.
   280  2.7900  0.  0.
   281  2.8000  0.  0.
   282  2.8100  0.  0.
   283  2.8200  0.  0.
   284  2.8300  0.  0.
   285  2.8400  0.  0.
   286  2.8500  0.  0.
   287  2.8600  0.  0.
   288  2.8700  0.  0.
   289  2.8800  0.  0.
   290  2.8900  0.  0.
   291  2.9000  0.  0.
   292  2.9100  0.  0.
   293  2.9200  0.  0.
   294  2.9300  0.  0.
   295  2.9400  0.  0.
   296  2.9500  0.  0.
   297  2.9600  0.  0.
   298  2.9700  0.  0.
   299  2.9800  0.  0.
   300  2.9900  0.  0.
   301  3.0000  0.  0.
   302  3.0100  0.  0.
   303  3.0200  0.  0.
   304  3.0300  0.  0.
   305  3.0400  0.  0.
   306  3.0500  0.  0.
   307  3.0600  0.  0.
   308  3.0700  0.  0.
   309  3.0800  0.  0.
   310  3.0900  0.  0.
   311  3.1000  0.  0.
   312  3.1100  0.  0.
   313  3.1200  0.  0.
   314  3.1300  0.  0.
   315  3.1400  0.  0.
   316  3.1500  0.  0.
   317  3.1600  0.  0.
   318  3.1700  0.  0.
   319  3.1800  0.  0.
   320  3.1900  0.  0.
   321  3.2000  0.  0.
   322  3.2100  0.  0.
   323  3.2200  0.  0.
   324  3.2300  0.  0.
   325  3.2400  0.  0.
   326  3.2500  0.  0.
   327  3.2600  0.  0.
   328  3.2700  0.  0.
   329  3.2800  0.  0.
   330  3.2900  0.  0.
   331  3.3000  0.  0.
   332  3.3100  0.  0.
   333  3.3200  0.  0.
   334  3.3300  0.  0.
   335  3.3400  0.  0.
   336  3.3500  0.  0.
   337  3.3600  0.  0.
   338  3.3700  0.  0.
   339  3.3800  0.  0.
   340  3.3900  0.  0.
   341  3.4000  0.  0.
   342  3.4100  0.  0.
   343  3.4200  0.  0.
   344  3.4300  0.  0.
   345  3.4400  0.  0.
   346  3.4500  0.  0.
   347  3.4600  0.  0.
   348  3.4700  0.  0.
   349  3.4800  0.  0.
   350  3.4900  0.  0.
   351  3.5000  0.  0.
   352  3.5100  0.  0.
   353  3.5200  0.  0.
   354  3.5300  0.  0.
   355  3.5400  0.  0.
   356  3.5500  0.  0.
   357  3.5600  0.  0.
   358  3.5700  0.  0.
   359  3.5800  0.  0.
   360  3.5900  0.  0.
   361  3.6000  0.  0.
   362  3.6100  0.  0.
   363  3.6200  0.  0.
   364  3.6300  0.  0.
   365  3.6400  0.  0.
   366  3.6500  0.  0.
   367  3.6600  0.  0.
   368  3.6700  0.  0.
   369  3.6800  0.  0.
   370  3.6900  0.  0.
   371  3.7000  0.  0.
   372  3.7100  0.  0.
   373  3.7200  0.  0.
   374  3.7300  0.  0.
   375  3.7400  0.  0.
   376  3.7500  0.  0.
   377  3.7600  0.  0.
   378  3.7700  0.  0.
   379  3.7800  0.  0.
   380  3.7900  0.  0.
   381  3.8000  0.  0.
   382  3.8100  0.  0.
   383  3.8200  0.  0.
   384  3.8300  0.  0.
   385  3.8400  0.  0.
   386  3.8500  0.  0.
   387  3.8600  0.  0.
   388  3.8700  0.  0.
   389  3.8800  0.  0.
   390  3.8900  0.  0.
   391  3.9000  0.  0.
   392  3.9100  0.  0.
   393  3.9200  0.  0.
   394  3.9300  0.  0.
   395  3.9400  0.  0.
   396  3.9500  0.  0.
   397  3.9600  0.  0.
   398  3.9700  0.  0.
   399  3.9800  0.  0.
   400  3.9900  0.  0.
   401  4.0000  0.  0.
   402  4.0100  0.  0.
   403  4.0200  0.  0.
   404  4.0300  0.  0.
   405  4.0400  0.  0.
   406  4.0500  0.  0.
   407  4.0600  0.  0.
   408  4.0700  0.  0.
   409  4.0800  0.  0.
   410  4.0900  0.  0.
   411  4.1000  0.  0.
   412  4.1100  0.  0.
   413  4.1200  0.  0.
   414  4.1300  0.  0.
   415  4.1400  0.  0.
   416  4.1500  0.  0.
   417  4.1600  0.  0.
   418  4.1700  0.  0.
   419  4.1800  0.  0.
   420  4.1900  0.  0.
   421  4.2000  0.  0.
   422  4.2100  0.  0.
   423  4.2200  0.  0.
   424  4.2300  0.  0.
   425  4.2400  0.  0.
   426  4.2500  0.  0.
   427  4.2600  0.  0.
   428  4.2700  0.  0.
   429  4.2800  0.  0.
   430  4.2900  0.  0.
   431  4.3000  0.  0.
   432  4.3100  0.  0.
   433  4.3200  0.  0.
   434  4.3300  0.  0.
   435  4.3400  0.  0.
   436  4.3500  0.  0.
   437  4.3600  0.  0.
   438  4.3700  0.  0.
   439  4.3800  0.  0.
   440  4.3900  0.  0.
   441  4.4000  0.  0.
   442  4.4100  0.  0.
   443  4.4200  0.  0.
   444  4.4300  0.  0.
   445  4.4400  0.  0.
   446  4.4500  0.  0.
   447  4.4600  0.  0.
   448  4.4700  0.  0.
   449  4.4800  0.  0.
   450  4.4900  0.  0.
   451  4.5000  0.  0.
   452  4.5100  0.  0.
   453  4.5200  0.  0.
   454  4.5300  0.  0.
   455  4.5400  0.  0.
   456  4.5500  0.  0.
   457  4.5600  0.  0.
   458  4.5700  0.  0.
   459  4.5800  0.  0.
   460  4.5900  0.  0.
   461  4.6000  0.  0.
   462  4.6100  0.  0.
   463  4.6200  0.  0.
   464  4.6300  0.  0.
   465  4.6400  0.  0.
   466  4.6500  0.  0.
   467  4.6600  0.  0.
   468  4.6700  0.  0.
   469  4.6800  0.  0.
   470  4.6900  0.  0.
   471  4.7000  0.  0.
   472  4.7100  0.  0.
   473  4.7200  0.  0.
   474  4.7300  0.  0.
   475  4.7400  0.  0.
   476  4.7500  0.  0.
   477  4.7600  0.  0.
   478  4.7700  0.  0.
   479  4.7800  0.  0.
   480  4.7900  0.  0.
   481  4.8000  0.  0.
   482  4.8100  0.  0.
   483  4.8200  0.  0.
   484  4.8300  0.  0.
   485  4.8400  0.  0.
   486  4.8500  0.  0.
   487  4.8600  0.  0.
   488  4.8700  0.  0.
   489  4.8800  0.  0.
   490  4.8900  0.  0.
   491  4.9000  0.  0.
   492  4.9100  0.  0.
   493  4.9200  0.  0.
   494  4.9300  0.  0.
   495  4.9400  0.  0.
   496  4.9500  0.  0.
   497  4.9600  0.  0.
   498  4.9700  0.  0.
   499  4.9800  0.  0.
   500  4.9900  0.  0.
   501  5.0000  0.  0.
   502  5.0100  0.  0.
   503  5.0200  0.  0.
   504  5.0300  0.  0.
   505  5.0400  0.  0.
   506  5.0500  0.  0.
   507  5.0600  0.  0.
   508  5.0700  0.  0.
   509  5.0800  0.  0.
   510  5.0900  0.  0.
   511  5.1000  0.  0.
   512  5.1100  0.  0.
   513  5.1200  0.  0.
   514  5.1300  0.  0.
   515  5.1400  0.  0.
   516  5.1500  0.  0.
   517  5.1600  0.  0.
   518  5.1700  0.  0.
   519  5.1800  0.  0.
   520  5.1900  0.  0.
   521  5.2000  0.  0.
   522  5.2100  0.  0.
   523  5.2200  0.  0.
   524  5.2300  0.  0.
   525  5.2400  0.  0.
   526  5.2500  0.  0.
   527  5.2600  0.  0.
   528  5.2700  0.  0.
   529  5.2800  0.  0.
   530  5.2900  0.  0.
   531  5.3000  0.  0.
   532  5.3100  0.  0.
   533  5.3200  0.  0.
   534  5.3300  0.  0.
   535  5.3400  0.  0.
   536  5.3500  0.  0.
   537  5.3600  0.  0.
   538  5.3700  0.  0.
   539  5.3800  0.  0.
   540  5.3900  0.  0.
   541  5.4000  0.  0.
   542  5.4100  0.  0.
   543  5.4200  0.  0.
   544  5.4300  0.  0.
   545  5.4400  0.  0.
   546  5.4500  0.  0.
   547  5.4600  0.  0.
   548  5.4700  0.  0.
   549  5.4800  0.  0.
   550  5.4900  0.  0.
   551  5.5000  0.  0.
   552  5.5100  0.  0.
   553  5.5200  0.  0.
   554  5.5300  0.  0.
   555  5.5400  0.  0.
   556  5.5500  0.  0.
   557  5.5600  0.  0.
   558  5.5700  0.  0.
   559  5.5800  0.  0.
   560  5.5900  0.  0.
   561  5.6000  0.  0.
   562  5.6100  0.  0.
   563  5.6200  0.  0.
   564  5.6300  0.  0.
   565  5.6400  0.  0.
   566  5.6500  0.  0.
   567  5.6600  0.  0.
   568  5.6700  0.  0.
   569  5.6800  0.  0.
   570  5.6900  0.  0.
   571  5.7000  0.  0.
   572  5.7100  0.  0.
   573  5.7200  0.  0.
   574  5.7300  0.  0.
   575  5.7400  0.  0.
   576  5.7500  0.  0.
   577  5.7600  0.  0.
   578  5.7700  0.  0.
   579  5.7800  0.  0.
   580  5.7900  0.  0.
   581  5.8000  0.  0.
   582  5.8100  0.  0.
   583  5.8200  0.  0.
   584  5.8300  0.  0.
   585  5.8400  0.  0.
   586  5.8500  0.  0.
   587  5.8600  0.  0.
   588  5.8700  0.  0.
   589  5.8800  0.  0.
   590  5.8900  0.  0.
   591  5.9000  0.  0.
   592  5.9100  0.  0.
   593  5.9200  0.  0.
   594  5.9300  0.  0.
   595  5.9400  0.  0.
   596  5.9500  0.  0.
   597  5.9600  0.  0.
   598  5.9700  0.  0.
   599  5.9800  0.  0.
   600  5.9900  0.  0.
   1                         1.0156422674237E+00  2.7343228360896E-01
     1  0.0000000000000E+00 -4.9477616448357E-11  4.9393746037740E-11
     2  1.0000000000000E-02 -5.1547567838288E-04  8.9891122542528E-04
     3  2.0000000000000E-02 -2.0595773386140E-03  3.5929640425996E-03
     4  3.0000000000000E-02 -4.6253368140559E-03  8.0741241037699E-03
     5  4.0000000000000E-02 -8.2011669954372E-03  1.4329028235958E-02
     6  5.0000000000000E-02 -1.2770901494950E-02  2.2339025462179E-02
     7  6.0000000000000E-02 -1.8313849999164E-02  3.2080234254223E-02
     8  7.0000000000000E-02 -2.4804869134518E-02  4.3523615840551E-02
     9  8.0000000000000E-02 -3.2214448619668E-02  5.6635063343462E-02
    10  9.0000000000000E-02 -4.0508812430165E-02  7.1375506470709E-02
    11  1.0000000000000E-01 -4.9650034652914E-02  8.7701031438788E-02
    12  1.1000000000000E-01 -5.9596169660722E-02  1.0556301575785E-01
    13  1.2000000000000E-01 -7.0301396191307E-02  1.2490827746225E-01
    14  1.3000000000000E-01 -8.1716174870206E-02  1.4567923832566E-01
    15  1.4000000000000E-01 -9.3787418673742E-02  1.6781410055659E-01
    16  1.5000000000000E-01 -1.0645867578597E-01  1.9124703642740E-01
    17  1.6000000000000E-01 -1.1967032426345E-01  2.1590839025030E-01
    18  1.7000000000000E-01 -1.3335977788267E-01  2.4172489207421E-01
    19  1.8000000000000E-01 -1.4746170250855E-01  2.6861988244034E-01
    20  1.9000000000000E-01 -1.6190824228726E-01  2.9651354749855E-01
    21  2.0000000000000E-01 -1.7662925493402E-01  3.2532316375444E-01
    22  2.1000000000000E-01 -1.9155255535593E-01  3.5496335168599E-01
    23  2.2000000000000E-01 -2.0660416682162E-01  3.8534633744016E-01
    24  2.3000000000000E-01 -2.2170857886353E-01  4.1638222179414E-01
    25  2.4000000000000E-01 -2.3678901107521E-01  4.4797925554194E-01
    26  2.5000000000000E-01 -2.5176768194539E-01  4.8004412044625E-01
    27  2.6000000000000E-01 -2.6656608185183E-01  5.1248221487707E-01
    28  2.7000000000000E-01 -2.8110524932311E-01  5.4519794324264E-01
    29  2.8000000000000E-01 -2.9530604966318E-01  5.7809500830548E-01
    30  2.9000000000000E-01 -3.0908945502382E-01  6.1107670546610E-01
    31  3.0000000000000E-01 -3.2237682500329E-01  6.4404621808952E-01
    32  3.1000000000000E-01 -3.3509018684492E-01  6.7690691294541E-01
    33  3.2000000000000E-01 -3.4715251430863E-01  7.0956263483123E-01
    34  3.3000000000000E-01 -3.5848800428989E-01  7.4191799944891E-01
    35  3.4000000000000E-01 -3.6902235026558E-01  7.7387868361043E-01
    36  3.5000000000000E-01 -3.7868301165393E-01  8.0535171185463E-01
    37  3.6000000000000E-01 -3.8739947818663E-01  8.3624573856816E-01
    38  3.7000000000000E-01 -3.9510352840475E-01  8.6647132471667E-01
    39  3.8000000000000E-01 -4.0172948140707E-01  8.9594120830852E-01
    40  3.9000000000000E-01 -4.0721444099892E-01  9.2457056773242E-01
    41  4.0000000000000E-01 -4.1149853141226E-01  9.5227727713230E-01
    42  4.1000000000000E-01 -4.1452512379304E-01  9.7898215300741E-01
    43  4.2000000000000E-01 -4.1624105268000E-01  1.0046091912532E+00
    44  4.3000000000000E-01 -4.1659682173010E-01  1.0290857938886E+00
    45  4.4000000000000E-01 -4.1554679797887E-01  1.0523429847476E+00
    46  4.5000000000000E-01 -4.1304939396030E-01  1.0743156134494E+00
    47  4.6000000000000E-01 -4.0906723704914E-01  1.0949425469973E+00
    48  4.7000000000000E-01 -4.0356732542913E-01  1.1141668483974E+00
    49  4.8000000000000E-01 -3.9652117013373E-01  1.1319359417299E+00
    50  4.9000000000000E-01 -3.8790492265087E-01  1.1482017631503E+00
    51  5.0000000000000E-01 -3.7769948762991E-01  1.1629208973424E+00
    52  5.1000000000000E-01 -3.6589062027811E-01  1.1760546989935E+00
    53  5.2000000000000E-01 -3.5246900808379E-01  1.1875693989118E+00
    54  5.3000000000000E-01 -3.3743033655533E-01  1.1974361944563E+00
    55  5.4000000000000E-01 -3.2077533871827E-01  1.2056313240005E+00
    56  5.5000000000000E-01 -3.0250982816669E-01  1.2121361252050E+00
    57  5.6000000000000E-01 -2.8264471552054E-01  1.2169370769300E+00
    58  5.7000000000000E-01 -2.6119600819604E-01  1.2200258246678E+00
    59  5.8000000000000E-01 -2.3818479345302E-01  1.2213991894382E+00
    60  5.9000000000000E-01 -2.1363720473962E-01  1.2210591601376E+00
    61  6.0000000000000E-01 -1.8758437141183E-01  1.2190128693945E+00