Na   ONCVPSP-2.1.1   r_core=    1.46091 2.29870
    11.0000   9.0000   150105   zatom,zion,pspd
    8   11   1   4   600   0   pspcod,pspxc,lmax,lloc,mmax,r2well
    5.99000000   0.00000000   0.00000000   rchrg fchrg qchrg
    2   2   0   0   0   nproj
    1   1   extension_switch
       0                         2.6800625357500E+00 -1.1375773243500E+00
     1  0.0000000000000E+00  0.0000000000000E+00  0.0000000000000E+00
     2  1.0000000000000E-02  1.2647199793000E-01 -2.1889129015000E-02
     3  2.0000000000000E-02  2.5231215859000E-01 -4.3861794984000E-02
     4  3.0000000000000E-02  3.7689227991000E-01 -6.6000724382000E-02
     5  4.0000000000000E-02  4.9959140815000E-01 -8.8387029007000E-02
     6  5.0000000000000E-02  6.1979940672000E-01 -1.1109941427000E-01
     7  6.0000000000000E-02  7.3692045928000E-01 -1.3421340613000E-01
     8  7.0000000000000E-02  8.5037648530000E-01 -1.5780060261000E-01
     9  8.0000000000000E-02  9.5961044760000E-01 -1.8192795572000E-01
    10  9.0000000000000E-02  1.0640895313000E+00 -2.0665708933000E-01
    11  1.0000000000000E-01  1.1633081749000E+00 -2.3204365821000E-01
    12  1.1000000000000E-01  1.2567909344000E+00 -2.5813675327000E-01
    13  1.2000000000000E-01  1.3440951637000E+00 -2.8497835747000E-01
    14  1.3000000000000E-01  1.4248134933000E+00 -3.1260285663000E-01
    15  1.4000000000000E-01  1.4985760930000E+00 -3.4103660899000E-01
    16  1.5000000000000E-01  1.5650527043000E+00 -3.7029757653000E-01
    17  1.6000000000000E-01  1.6239544286000E+00 -4.0039502130000E-01
    18  1.7000000000000E-01  1.6750352625000E+00 -4.3132926852000E-01
    19  1.8000000000000E-01  1.7180933663000E+00 -4.6309153880000E-01
    20  1.9000000000000E-01  1.7529720630000E+00 -4.9566385020000E-01
    21  2.0000000000000E-01  1.7795605544000E+00 -5.2901899143000E-01
    22  2.1000000000000E-01  1.7977943592000E+00 -5.6312056546000E-01
    23  2.2000000000000E-01  1.8076554584000E+00 -5.9792310433000E-01
    24  2.3000000000000E-01  1.8091721571000E+00 -6.3337225325000E-01
    25  2.4000000000000E-01  1.8024186576000E+00 -6.6940502274000E-01
    26  2.5000000000000E-01  1.7875143496000E+00 -7.0595010791000E-01
    27  2.6000000000000E-01  1.7646228191000E+00 -7.4292826941000E-01
    28  2.7000000000000E-01  1.7339505838000E+00 -7.8025277844000E-01
    29  2.8000000000000E-01  1.6957455642000E+00 -8.1782991584000E-01
    30  2.9000000000000E-01  1.6502952990000E+00 -8.5555952666000E-01
    31  3.0000000000000E-01  1.5979249159000E+00 -8.9333562380000E-01
    32  3.1000000000000E-01  1.5389948715000E+00 -9.3104703637000E-01
    33  3.2000000000000E-01  1.4738984896000E+00 -9.6857809422000E-01
    34  3.3000000000000E-01  1.4030592613000E+00 -1.0058093591000E+00
    35  3.4000000000000E-01  1.3269280193000E+00 -1.0426183682000E+00
    36  3.5000000000000E-01  1.2459799135000E+00 -1.0788804127000E+00
    37  3.6000000000000E-01  1.1607112564000E+00 -1.1144693317000E+00
    38  3.7000000000000E-01  1.0716362279000E+00 -1.1492583232000E+00
    39  3.8000000000000E-01  9.7928356111000E-01 -1.1831207410000E+00
    40  3.9000000000000E-01  8.8419304772000E-01 -1.2159309200000E+00
    41  4.0000000000000E-01  7.8691203962000E-01 -1.2475649843000E+00
    42  4.1000000000000E-01  6.8799196838000E-01 -1.2779016319000E+00
    43  4.2000000000000E-01  5.8798481025000E-01 -1.3068229172000E+00
    44  4.3000000000000E-01  4.8743959135000E-01 -1.3342150064000E+00
    45  4.4000000000000E-01  3.8689894232000E-01 -1.3599689048000E+00
    46  4.5000000000000E-01  2.8689572638000E-01 -1.3839811514000E+00
    47  4.6000000000000E-01  1.8794976576000E-01 -1.4061544752000E+00
    48  4.7000000000000E-01  9.0564725732000E-02 -1.4263984011000E+00
    49  4.8000000000000E-01 -4.7749113238000E-03 -1.4446298226000E+00
    50  4.9000000000000E-01 -9.7606834105000E-02 -1.4607735498000E+00
    51  5.0000000000000E-01 -1.8749339285000E-01 -1.4747627363000E+00
    52  5.1000000000000E-01 -2.7402394039000E-01 -1.4865392647000E+00
    53  5.2000000000000E-01 -3.5681744500000E-01 -1.4960541754000E+00
    54  5.3000000000000E-01 -4.3552434649000E-01 -1.5032679223000E+00
    55  5.4000000000000E-01 -5.0982780628000E-01 -1.5081505035000E+00
    56  5.5000000000000E-01 -5.7944634889000E-01 -1.5106818492000E+00
    57  5.6000000000000E-01 -6.4413371718000E-01 -1.5108516586000E+00
    58  5.7000000000000E-01 -7.0368108533000E-01 -1.5086596766000E+00
    59  5.8000000000000E-01 -7.5791658359000E-01 -1.5041154595000E+00
    60  5.9000000000000E-01 -8.0670686611000E-01 -1.4972384948000E+00
    61  6.0000000000000E-01 -8.4995585093000E-01 -1.4880578266000E+00
    62  6.1000000000000E-01 -8.8760603263000E-01 -1.4766120866000E+00
    63  6.2000000000000E-01 -9.1963675989000E-01 -1.4629490348000E+00
    64  6.3000000000000E-01 -9.4606409793000E-01 -1.4471253337000E+00
    65  6.4000000000000E-01 -9.6693995671000E-01 -1.4292061844000E+00
    66  6.5000000000000E-01 -9.8235036367000E-01 -1.4092648579000E+00
    67  6.6000000000000E-01 -9.9241430642000E-01 -1.3873822713000E+00
    68  6.7000000000000E-01 -9.9728207678000E-01 -1.3636464687000E+00
    69  6.8000000000000E-01 -9.9713310310000E-01 -1.3381520752000E+00
    70  6.9000000000000E-01 -9.9217397975000E-01 -1.3109997494000E+00
    71  7.0000000000000E-01 -9.8263622254000E-01 -1.2822955541000E+00
    72  7.1000000000000E-01 -9.6877375248000E-01 -1.2521503131000E+00
    73  7.2000000000000E-01 -9.5086038962000E-01 -1.2206790042000E+00
    74  7.3000000000000E-01 -9.2918721471000E-01 -1.1880000882000E+00
    75  7.4000000000000E-01 -9.0405984544000E-01 -1.1542348400000E+00
    76  7.5000000000000E-01 -8.7579582360000E-01 -1.1195067271000E+00
    77  7.6000000000000E-01 -8.4472136232000E-01 -1.0839405862000E+00
    78  7.7000000000000E-01 -8.1116887893000E-01 -1.0476620734000E+00
    79  7.8000000000000E-01 -7.7547417252000E-01 -1.0107969851000E+00
    80  7.9000000000000E-01 -7.3797365838000E-01 -9.7347060047000E-01
    81  8.0000000000000E-01 -6.9900169840000E-01 -9.3580704824000E-01
    82  8.1000000000000E-01 -6.5888802393000E-01 -8.9792869525000E-01
    83  8.2000000000000E-01 -6.1795527276000E-01 -8.5995555876000E-01
    84  8.3000000000000E-01 -5.7651666046000E-01 -8.2200474666000E-01
    85  8.4000000000000E-01 -5.3487380451000E-01 -7.8418992837000E-01
    86  8.5000000000000E-01 -4.9331471807000E-01 -7.4662083925000E-01
    87  8.6000000000000E-01 -4.5211198832000E-01 -7.0940282091000E-01
    88  8.7000000000000E-01 -4.1152115225000E-01 -6.7263639967000E-01
    89  8.8000000000000E-01 -3.7177928090000E-01 -6.3641690488000E-01
    90  8.9000000000000E-01 -3.3310378059000E-01 -6.0083412862000E-01
    91  9.0000000000000E-01 -2.9569141778000E-01 -5.6597202806000E-01
    92  9.1000000000000E-01 -2.5971757149000E-01 -5.3190847121000E-01
    93  9.2000000000000E-01 -2.2533571507000E-01 -4.9871502667000E-01
    94  9.3000000000000E-01 -1.9267712638000E-01 -4.6645679756000E-01
    95  9.4000000000000E-01 -1.6185082278000E-01 -4.3519229935000E-01
    96  9.5000000000000E-01 -1.3294413622000E-01 -4.0497350902000E-01
    97  9.6000000000000E-01 -1.0602196719000E-01 -3.7584550348000E-01
    98  9.7000000000000E-01 -8.1128002831000E-02 -3.4784664412000E-01
    99  9.8000000000000E-01 -5.8285693102000E-02 -3.2100869158000E-01
   100  9.9000000000000E-01 -3.7498986972000E-02 -2.9535683144000E-01
   101  1.0000000000000E+00 -1.8753427089000E-02 -2.7090979562000E-01
   102  1.0100000000000E+00 -2.0173821952000E-03 -2.4768001799000E-01
   103  1.0200000000000E+00  1.2756292795000E-02 -2.2567397177000E-01
   104  1.0300000000000E+00  2.5629848114000E-02 -2.0489194933000E-01
   105  1.0400000000000E+00  3.6678235027000E-02 -1.8532859219000E-01
   106  1.0500000000000E+00  4.5987379198000E-02 -1.6697324473000E-01
   107  1.0600000000000E+00  5.3652732613000E-02 -1.4981016613000E-01
   108  1.0700000000000E+00  5.9777702151000E-02 -1.3381890751000E-01
   109  1.0800000000000E+00  6.4472153698000E-02 -1.1897441317000E-01
   110  1.0900000000000E+00  6.7850174861000E-02 -1.0524746460000E-01
   111  1.1000000000000E+00  7.0028684621000E-02 -9.2605197728000E-02
   112  1.1100000000000E+00  7.1126077520000E-02 -8.1011361776000E-02
   113  1.1200000000000E+00  7.1261449801000E-02 -7.0426598272000E-02
   114  1.1300000000000E+00  7.0550728164000E-02 -6.0808918079000E-02
   115  1.1400000000000E+00  6.9107521338000E-02 -5.2114133013000E-02
   116  1.1500000000000E+00  6.7041932693000E-02 -4.4296100768000E-02
   117  1.1600000000000E+00  6.4459789879000E-02 -3.7306969910000E-02
   118  1.1700000000000E+00  6.1458482238000E-02 -3.1098119637000E-02
   119  1.1800000000000E+00  5.8129959051000E-02 -2.5620026355000E-02
   120  1.1900000000000E+00  5.4560599178000E-02 -2.0822336583000E-02
   121  1.2000000000000E+00  5.0826883846000E-02 -1.6655014876000E-02
   122  1.2100000000000E+00  4.6997183143000E-02 -1.3068448629000E-02
   123  1.2200000000000E+00  4.3133752279000E-02 -1.0013103128000E-02
   124  1.2300000000000E+00  3.9290696768000E-02 -7.4402144100000E-03
   125  1.2400000000000E+00  3.5512214033000E-02 -5.3031063425000E-03
   126  1.2500000000000E+00  3.1837657878000E-02 -3.5557878717000E-03
   127  1.2600000000000E+00  2.8300065050000E-02 -2.1534664567000E-03
   128  1.2700000000000E+00  2.4923979309000E-02 -1.0548828993000E-03
   129  1.2800000000000E+00  2.1731266471000E-02 -2.1980027299000E-04
   130  1.2900000000000E+00  1.8739325036000E-02  3.9012437814000E-04
   131  1.3000000000000E+00  1.5961524867000E-02  8.0877574557000E-04
   132  1.3100000000000E+00  1.3410601475000E-02  1.0689751442000E-03
   133  1.3200000000000E+00  1.1098762937000E-02  1.2002901741000E-03
   134  1.3300000000000E+00  9.0332036153000E-03  1.2286181247000E-03
   135  1.3400000000000E+00  7.2191369474000E-03  1.1792471728000E-03
   136  1.3500000000000E+00  5.6527908688000E-03  1.0739860516000E-03
   137  1.3600000000000E+00  4.3257297295000E-03  9.3208512081000E-04
   138  1.3700000000000E+00  3.2269210545000E-03  7.7238352746000E-04
   139  1.3800000000000E+00  2.3385464847000E-03  6.0802195970000E-04
   140  1.3900000000000E+00  1.6421895669000E-03  4.5168368540000E-04
   141  1.4000000000000E+00  1.1161504708000E-03  3.1283225874000E-04
   142  1.4100000000000E+00  7.3740740261000E-04  1.9682260983000E-04
   143  1.4200000000000E+00  4.8177486353000E-04  1.0885074798000E-04
   144  1.4300000000000E+00  3.2476812345000E-04  4.7925934214000E-05
   145  1.4400000000000E+00  2.4163271883000E-04  1.2558591371000E-05
   146  1.4500000000000E+00  2.1663543827000E-04 -3.5364155559000E-06
   147  1.4600000000000E+00  2.0246791218000E-04 -6.4826771951000E-06
   148  1.4700000000000E+00  9.4881923986000E-05 -3.7797037659000E-06
   149  1.4800000000000E+00 -5.2917583368000E-06  1.6792265506000E-07
   150  1.4900000000000E+00 -1.0662988028000E-05  3.3836716390000E-07
   151  1.5000000000000E+00  0.0000000000000E+00  0.0000000000000E+00
   152  1.5100000000000E+00  0.0000000000000E+00  0.0000000000000E+00
   153  1.5200000000000E+00  0.0000000000000E+00  0.0000000000000E+00
   154  1.5300000000000E+00  0.0000000000000E+00  0.0000000000000E+00
   155  1.5400000000000E+00  0.0000000000000E+00  0.0000000000000E+00
   156  1.5500000000000E+00  0.0000000000000E+00  0.0000000000000E+00
   157  1.5600000000000E+00  0.0000000000000E+00  0.0000000000000E+00
   158  1.5700000000000E+00  0.0000000000000E+00  0.0000000000000E+00
   159  1.5800000000000E+00  0.0000000000000E+00  0.0000000000000E+00
   160  1.5900000000000E+00  0.0000000000000E+00  0.0000000000000E+00
   161  1.6000000000000E+00  0.0000000000000E+00  0.0000000000000E+00
   162  1.6100000000000E+00  0.0000000000000E+00  0.0000000000000E+00
   163  1.6200000000000E+00  0.0000000000000E+00  0.0000000000000E+00
   164  1.6300000000000E+00  0.0000000000000E+00  0.0000000000000E+00
   165  1.6400000000000E+00  0.0000000000000E+00  0.0000000000000E+00
   166  1.6500000000000E+00  0.0000000000000E+00  0.0000000000000E+00
   167  1.6600000000000E+00  0.0000000000000E+00  0.0000000000000E+00
   168  1.6700000000000E+00  0.0000000000000E+00  0.0000000000000E+00
   169  1.6800000000000E+00  0.0000000000000E+00  0.0000000000000E+00
   170  1.6900000000000E+00  0.0000000000000E+00  0.0000000000000E+00
   171  1.7000000000000E+00  0.0000000000000E+00  0.0000000000000E+00
   172  1.7100000000000E+00  0.0000000000000E+00  0.0000000000000E+00
   173  1.7200000000000E+00  0.0000000000000E+00  0.0000000000000E+00
   174  1.7300000000000E+00  0.0000000000000E+00  0.0000000000000E+00
   175  1.7400000000000E+00  0.0000000000000E+00  0.0000000000000E+00
   176  1.7500000000000E+00  0.0000000000000E+00  0.0000000000000E+00
   177  1.7600000000000E+00  0.0000000000000E+00  0.0000000000000E+00
   178  1.7700000000000E+00  0.0000000000000E+00  0.0000000000000E+00
   179  1.7800000000000E+00  0.0000000000000E+00  0.0000000000000E+00
   180  1.7900000000000E+00  0.0000000000000E+00  0.0000000000000E+00
   181  1.8000000000000E+00  0.0000000000000E+00  0.0000000000000E+00
   182  1.8100000000000E+00  0.0000000000000E+00  0.0000000000000E+00
   183  1.8200000000000E+00  0.0000000000000E+00  0.0000000000000E+00
   184  1.8300000000000E+00  0.0000000000000E+00  0.0000000000000E+00
   185  1.8400000000000E+00  0.0000000000000E+00  0.0000000000000E+00
   186  1.8500000000000E+00  0.0000000000000E+00  0.0000000000000E+00
   187  1.8600000000000E+00  0.0000000000000E+00  0.0000000000000E+00
   188  1.8700000000000E+00  0.0000000000000E+00  0.0000000000000E+00
   189  1.8800000000000E+00  0.0000000000000E+00  0.0000000000000E+00
   190  1.8900000000000E+00  0.0000000000000E+00  0.0000000000000E+00
   191  1.9000000000000E+00  0.0000000000000E+00  0.0000000000000E+00
   192  1.9100000000000E+00  0.0000000000000E+00  0.0000000000000E+00
   193  1.9200000000000E+00  0.0000000000000E+00  0.0000000000000E+00
   194  1.9300000000000E+00  0.0000000000000E+00  0.0000000000000E+00
   195  1.9400000000000E+00  0.0000000000000E+00  0.0000000000000E+00
   196  1.9500000000000E+00  0.0000000000000E+00  0.0000000000000E+00
   197  1.9600000000000E+00  0.0000000000000E+00  0.0000000000000E+00
   198  1.9700000000000E+00  0.0000000000000E+00  0.0000000000000E+00
   199  1.9800000000000E+00  0.0000000000000E+00  0.0000000000000E+00
   200  1.9900000000000E+00  0.0000000000000E+00  0.0000000000000E+00
   201  2.0000000000000E+00  0.0000000000000E+00  0.0000000000000E+00
   202  2.0100000000000E+00  0.0000000000000E+00  0.0000000000000E+00
   203  2.0200000000000E+00  0.0000000000000E+00  0.0000000000000E+00
   204  2.0300000000000E+00  0.0000000000000E+00  0.0000000000000E+00
   205  2.0400000000000E+00  0.0000000000000E+00  0.0000000000000E+00
   206  2.0500000000000E+00  0.0000000000000E+00  0.0000000000000E+00
   207  2.0600000000000E+00  0.0000000000000E+00  0.0000000000000E+00
   208  2.0700000000000E+00  0.0000000000000E+00  0.0000000000000E+00
   209  2.0800000000000E+00  0.0000000000000E+00  0.0000000000000E+00
   210  2.0900000000000E+00  0.0000000000000E+00  0.0000000000000E+00
   211  2.1000000000000E+00  0.0000000000000E+00  0.0000000000000E+00
   212  2.1100000000000E+00  0.0000000000000E+00  0.0000000000000E+00
   213  2.1200000000000E+00  0.0000000000000E+00  0.0000000000000E+00
   214  2.1300000000000E+00  0.0000000000000E+00  0.0000000000000E+00
   215  2.1400000000000E+00  0.0000000000000E+00  0.0000000000000E+00
   216  2.1500000000000E+00  0.0000000000000E+00  0.0000000000000E+00
   217  2.1600000000000E+00  0.0000000000000E+00  0.0000000000000E+00
   218  2.1700000000000E+00  0.0000000000000E+00  0.0000000000000E+00
   219  2.1800000000000E+00  0.0000000000000E+00  0.0000000000000E+00
   220  2.1900000000000E+00  0.0000000000000E+00  0.0000000000000E+00
   221  2.2000000000000E+00  0.0000000000000E+00  0.0000000000000E+00
   222  2.2100000000000E+00  0.0000000000000E+00  0.0000000000000E+00
   223  2.2200000000000E+00  0.0000000000000E+00  0.0000000000000E+00
   224  2.2300000000000E+00  0.0000000000000E+00  0.0000000000000E+00
   225  2.2400000000000E+00  0.0000000000000E+00  0.0000000000000E+00
   226  2.2500000000000E+00  0.0000000000000E+00  0.0000000000000E+00
   227  2.2600000000000E+00  0.0000000000000E+00  0.0000000000000E+00
   228  2.2700000000000E+00  0.0000000000000E+00  0.0000000000000E+00
   229  2.2800000000000E+00  0.0000000000000E+00  0.0000000000000E+00
   230  2.2900000000000E+00  0.0000000000000E+00  0.0000000000000E+00
   231  2.3000000000000E+00  0.0000000000000E+00  0.0000000000000E+00
   232  2.3100000000000E+00  0.0000000000000E+00  0.0000000000000E+00
   233  2.3200000000000E+00  0.0000000000000E+00  0.0000000000000E+00
   234  2.3300000000000E+00  0.0000000000000E+00  0.0000000000000E+00
   235  2.3400000000000E+00  0.0000000000000E+00  0.0000000000000E+00
   236  2.3500000000000E+00  0.0000000000000E+00  0.0000000000000E+00
   237  2.3600000000000E+00  0.0000000000000E+00  0.0000000000000E+00
   238  2.3700000000000E+00  0.0000000000000E+00  0.0000000000000E+00
   239  2.3800000000000E+00  0.0000000000000E+00  0.0000000000000E+00
   240  2.3900000000000E+00  0.0000000000000E+00  0.0000000000000E+00
   241  2.4000000000000E+00  0.0000000000000E+00  0.0000000000000E+00
   242  2.4100000000000E+00  0.0000000000000E+00  0.0000000000000E+00
   243  2.4200000000000E+00  0.0000000000000E+00  0.0000000000000E+00
   244  2.4300000000000E+00  0.0000000000000E+00  0.0000000000000E+00
   245  2.4400000000000E+00  0.0000000000000E+00  0.0000000000000E+00
   246  2.4500000000000E+00  0.0000000000000E+00  0.0000000000000E+00
   247  2.4600000000000E+00  0.0000000000000E+00  0.0000000000000E+00
   248  2.4700000000000E+00  0.0000000000000E+00  0.0000000000000E+00
   249  2.4800000000000E+00  0.0000000000000E+00  0.0000000000000E+00
   250  2.4900000000000E+00  0.0000000000000E+00  0.0000000000000E+00
   251  2.5000000000000E+00  0.0000000000000E+00  0.0000000000000E+00
   252  2.5100000000000E+00  0.0000000000000E+00  0.0000000000000E+00
   253  2.5200000000000E+00  0.0000000000000E+00  0.0000000000000E+00
   254  2.5300000000000E+00  0.0000000000000E+00  0.0000000000000E+00
   255  2.5400000000000E+00  0.0000000000000E+00  0.0000000000000E+00
   256  2.5500000000000E+00  0.0000000000000E+00  0.0000000000000E+00
   257  2.5600000000000E+00  0.0000000000000E+00  0.0000000000000E+00
   258  2.5700000000000E+00  0.0000000000000E+00  0.0000000000000E+00
   259  2.5800000000000E+00  0.0000000000000E+00  0.0000000000000E+00
   260  2.5900000000000E+00  0.0000000000000E+00  0.0000000000000E+00
   261  2.6000000000000E+00  0.0000000000000E+00  0.0000000000000E+00
   262  2.6100000000000E+00  0.0000000000000E+00  0.0000000000000E+00
   263  2.6200000000000E+00  0.0000000000000E+00  0.0000000000000E+00
   264  2.6300000000000E+00  0.0000000000000E+00  0.0000000000000E+00
   265  2.6400000000000E+00  0.0000000000000E+00  0.0000000000000E+00
   266  2.6500000000000E+00  0.0000000000000E+00  0.0000000000000E+00
   267  2.6600000000000E+00  0.0000000000000E+00  0.0000000000000E+00
   268  2.6700000000000E+00  0.0000000000000E+00  0.0000000000000E+00
   269  2.6800000000000E+00  0.0000000000000E+00  0.0000000000000E+00
   270  2.6900000000000E+00  0.0000000000000E+00  0.0000000000000E+00
   271  2.7000000000000E+00  0.0000000000000E+00  0.0000000000000E+00
   272  2.7100000000000E+00  0.0000000000000E+00  0.0000000000000E+00
   273  2.7200000000000E+00  0.0000000000000E+00  0.0000000000000E+00
   274  2.7300000000000E+00  0.0000000000000E+00  0.0000000000000E+00
   275  2.7400000000000E+00  0.0000000000000E+00  0.0000000000000E+00
   276  2.7500000000000E+00  0.0000000000000E+00  0.0000000000000E+00
   277  2.7600000000000E+00  0.0000000000000E+00  0.0000000000000E+00
   278  2.7700000000000E+00  0.0000000000000E+00  0.0000000000000E+00
   279  2.7800000000000E+00  0.0000000000000E+00  0.0000000000000E+00
   280  2.7900000000000E+00  0.0000000000000E+00  0.0000000000000E+00
   281  2.8000000000000E+00  0.0000000000000E+00  0.0000000000000E+00
   282  2.8100000000000E+00  0.0000000000000E+00  0.0000000000000E+00
   283  2.8200000000000E+00  0.0000000000000E+00  0.0000000000000E+00
   284  2.8300000000000E+00  0.0000000000000E+00  0.0000000000000E+00
   285  2.8400000000000E+00  0.0000000000000E+00  0.0000000000000E+00
   286  2.8500000000000E+00  0.0000000000000E+00  0.0000000000000E+00
   287  2.8600000000000E+00  0.0000000000000E+00  0.0000000000000E+00
   288  2.8700000000000E+00  0.0000000000000E+00  0.0000000000000E+00
   289  2.8800000000000E+00  0.0000000000000E+00  0.0000000000000E+00
   290  2.8900000000000E+00  0.0000000000000E+00  0.0000000000000E+00
   291  2.9000000000000E+00  0.0000000000000E+00  0.0000000000000E+00
   292  2.9100000000000E+00  0.0000000000000E+00  0.0000000000000E+00
   293  2.9200000000000E+00  0.0000000000000E+00  0.0000000000000E+00
   294  2.9300000000000E+00  0.0000000000000E+00  0.0000000000000E+00
   295  2.9400000000000E+00  0.0000000000000E+00  0.0000000000000E+00
   296  2.9500000000000E+00  0.0000000000000E+00  0.0000000000000E+00
   297  2.9600000000000E+00  0.0000000000000E+00  0.0000000000000E+00
   298  2.9700000000000E+00  0.0000000000000E+00  0.0000000000000E+00
   299  2.9800000000000E+00  0.0000000000000E+00  0.0000000000000E+00
   300  2.9900000000000E+00  0.0000000000000E+00  0.0000000000000E+00
   301  3.0000000000000E+00  0.0000000000000E+00  0.0000000000000E+00
   302  3.0100000000000E+00  0.0000000000000E+00  0.0000000000000E+00
   303  3.0200000000000E+00  0.0000000000000E+00  0.0000000000000E+00
   304  3.0300000000000E+00  0.0000000000000E+00  0.0000000000000E+00
   305  3.0400000000000E+00  0.0000000000000E+00  0.0000000000000E+00
   306  3.0500000000000E+00  0.0000000000000E+00  0.0000000000000E+00
   307  3.0600000000000E+00  0.0000000000000E+00  0.0000000000000E+00
   308  3.0700000000000E+00  0.0000000000000E+00  0.0000000000000E+00
   309  3.0800000000000E+00  0.0000000000000E+00  0.0000000000000E+00
   310  3.0900000000000E+00  0.0000000000000E+00  0.0000000000000E+00
   311  3.1000000000000E+00  0.0000000000000E+00  0.0000000000000E+00
   312  3.1100000000000E+00  0.0000000000000E+00  0.0000000000000E+00
   313  3.1200000000000E+00  0.0000000000000E+00  0.0000000000000E+00
   314  3.1300000000000E+00  0.0000000000000E+00  0.0000000000000E+00
   315  3.1400000000000E+00  0.0000000000000E+00  0.0000000000000E+00
   316  3.1500000000000E+00  0.0000000000000E+00  0.0000000000000E+00
   317  3.1600000000000E+00  0.0000000000000E+00  0.0000000000000E+00
   318  3.1700000000000E+00  0.0000000000000E+00  0.0000000000000E+00
   319  3.1800000000000E+00  0.0000000000000E+00  0.0000000000000E+00
   320  3.1900000000000E+00  0.0000000000000E+00  0.0000000000000E+00
   321  3.2000000000000E+00  0.0000000000000E+00  0.0000000000000E+00
   322  3.2100000000000E+00  0.0000000000000E+00  0.0000000000000E+00
   323  3.2200000000000E+00  0.0000000000000E+00  0.0000000000000E+00
   324  3.2300000000000E+00  0.0000000000000E+00  0.0000000000000E+00
   325  3.2400000000000E+00  0.0000000000000E+00  0.0000000000000E+00
   326  3.2500000000000E+00  0.0000000000000E+00  0.0000000000000E+00
   327  3.2600000000000E+00  0.0000000000000E+00  0.0000000000000E+00
   328  3.2700000000000E+00  0.0000000000000E+00  0.0000000000000E+00
   329  3.2800000000000E+00  0.0000000000000E+00  0.0000000000000E+00
   330  3.2900000000000E+00  0.0000000000000E+00  0.0000000000000E+00
   331  3.3000000000000E+00  0.0000000000000E+00  0.0000000000000E+00
   332  3.3100000000000E+00  0.0000000000000E+00  0.0000000000000E+00
   333  3.3200000000000E+00  0.0000000000000E+00  0.0000000000000E+00
   334  3.3300000000000E+00  0.0000000000000E+00  0.0000000000000E+00
   335  3.3400000000000E+00  0.0000000000000E+00  0.0000000000000E+00
   336  3.3500000000000E+00  0.0000000000000E+00  0.0000000000000E+00
   337  3.3600000000000E+00  0.0000000000000E+00  0.0000000000000E+00
   338  3.3700000000000E+00  0.0000000000000E+00  0.0000000000000E+00
   339  3.3800000000000E+00  0.0000000000000E+00  0.0000000000000E+00
   340  3.3900000000000E+00  0.0000000000000E+00  0.0000000000000E+00
   341  3.4000000000000E+00  0.0000000000000E+00  0.0000000000000E+00
   342  3.4100000000000E+00  0.0000000000000E+00  0.0000000000000E+00
   343  3.4200000000000E+00  0.0000000000000E+00  0.0000000000000E+00
   344  3.4300000000000E+00  0.0000000000000E+00  0.0000000000000E+00
   345  3.4400000000000E+00  0.0000000000000E+00  0.0000000000000E+00
   346  3.4500000000000E+00  0.0000000000000E+00  0.0000000000000E+00
   347  3.4600000000000E+00  0.0000000000000E+00  0.0000000000000E+00
   348  3.4700000000000E+00  0.0000000000000E+00  0.0000000000000E+00
   349  3.4800000000000E+00  0.0000000000000E+00  0.0000000000000E+00
   350  3.4900000000000E+00  0.0000000000000E+00  0.0000000000000E+00
   351  3.5000000000000E+00  0.0000000000000E+00  0.0000000000000E+00
   352  3.5100000000000E+00  0.0000000000000E+00  0.0000000000000E+00
   353  3.5200000000000E+00  0.0000000000000E+00  0.0000000000000E+00
   354  3.5300000000000E+00  0.0000000000000E+00  0.0000000000000E+00
   355  3.5400000000000E+00  0.0000000000000E+00  0.0000000000000E+00
   356  3.5500000000000E+00  0.0000000000000E+00  0.0000000000000E+00
   357  3.5600000000000E+00  0.0000000000000E+00  0.0000000000000E+00
   358  3.5700000000000E+00  0.0000000000000E+00  0.0000000000000E+00
   359  3.5800000000000E+00  0.0000000000000E+00  0.0000000000000E+00
   360  3.5900000000000E+00  0.0000000000000E+00  0.0000000000000E+00
   361  3.6000000000000E+00  0.0000000000000E+00  0.0000000000000E+00
   362  3.6100000000000E+00  0.0000000000000E+00  0.0000000000000E+00
   363  3.6200000000000E+00  0.0000000000000E+00  0.0000000000000E+00
   364  3.6300000000000E+00  0.0000000000000E+00  0.0000000000000E+00
   365  3.6400000000000E+00  0.0000000000000E+00  0.0000000000000E+00
   366  3.6500000000000E+00  0.0000000000000E+00  0.0000000000000E+00
   367  3.6600000000000E+00  0.0000000000000E+00  0.0000000000000E+00
   368  3.6700000000000E+00  0.0000000000000E+00  0.0000000000000E+00
   369  3.6800000000000E+00  0.0000000000000E+00  0.0000000000000E+00
   370  3.6900000000000E+00  0.0000000000000E+00  0.0000000000000E+00
   371  3.7000000000000E+00  0.0000000000000E+00  0.0000000000000E+00
   372  3.7100000000000E+00  0.0000000000000E+00  0.0000000000000E+00
   373  3.7200000000000E+00  0.0000000000000E+00  0.0000000000000E+00
   374  3.7300000000000E+00  0.0000000000000E+00  0.0000000000000E+00
   375  3.7400000000000E+00  0.0000000000000E+00  0.0000000000000E+00
   376  3.7500000000000E+00  0.0000000000000E+00  0.0000000000000E+00
   377  3.7600000000000E+00  0.0000000000000E+00  0.0000000000000E+00
   378  3.7700000000000E+00  0.0000000000000E+00  0.0000000000000E+00
   379  3.7800000000000E+00  0.0000000000000E+00  0.0000000000000E+00
   380  3.7900000000000E+00  0.0000000000000E+00  0.0000000000000E+00
   381  3.8000000000000E+00  0.0000000000000E+00  0.0000000000000E+00
   382  3.8100000000000E+00  0.0000000000000E+00  0.0000000000000E+00
   383  3.8200000000000E+00  0.0000000000000E+00  0.0000000000000E+00
   384  3.8300000000000E+00  0.0000000000000E+00  0.0000000000000E+00
   385  3.8400000000000E+00  0.0000000000000E+00  0.0000000000000E+00
   386  3.8500000000000E+00  0.0000000000000E+00  0.0000000000000E+00
   387  3.8600000000000E+00  0.0000000000000E+00  0.0000000000000E+00
   388  3.8700000000000E+00  0.0000000000000E+00  0.0000000000000E+00
   389  3.8800000000000E+00  0.0000000000000E+00  0.0000000000000E+00
   390  3.8900000000000E+00  0.0000000000000E+00  0.0000000000000E+00
   391  3.9000000000000E+00  0.0000000000000E+00  0.0000000000000E+00
   392  3.9100000000000E+00  0.0000000000000E+00  0.0000000000000E+00
   393  3.9200000000000E+00  0.0000000000000E+00  0.0000000000000E+00
   394  3.9300000000000E+00  0.0000000000000E+00  0.0000000000000E+00
   395  3.9400000000000E+00  0.0000000000000E+00  0.0000000000000E+00
   396  3.9500000000000E+00  0.0000000000000E+00  0.0000000000000E+00
   397  3.9600000000000E+00  0.0000000000000E+00  0.0000000000000E+00
   398  3.9700000000000E+00  0.0000000000000E+00  0.0000000000000E+00
   399  3.9800000000000E+00  0.0000000000000E+00  0.0000000000000E+00
   400  3.9900000000000E+00  0.0000000000000E+00  0.0000000000000E+00
   401  4.0000000000000E+00  0.0000000000000E+00  0.0000000000000E+00
   402  4.0100000000000E+00  0.0000000000000E+00  0.0000000000000E+00
   403  4.0200000000000E+00  0.0000000000000E+00  0.0000000000000E+00
   404  4.0300000000000E+00  0.0000000000000E+00  0.0000000000000E+00
   405  4.0400000000000E+00  0.0000000000000E+00  0.0000000000000E+00
   406  4.0500000000000E+00  0.0000000000000E+00  0.0000000000000E+00
   407  4.0600000000000E+00  0.0000000000000E+00  0.0000000000000E+00
   408  4.0700000000000E+00  0.0000000000000E+00  0.0000000000000E+00
   409  4.0800000000000E+00  0.0000000000000E+00  0.0000000000000E+00
   410  4.0900000000000E+00  0.0000000000000E+00  0.0000000000000E+00
   411  4.1000000000000E+00  0.0000000000000E+00  0.0000000000000E+00
   412  4.1100000000000E+00  0.0000000000000E+00  0.0000000000000E+00
   413  4.1200000000000E+00  0.0000000000000E+00  0.0000000000000E+00
   414  4.1300000000000E+00  0.0000000000000E+00  0.0000000000000E+00
   415  4.1400000000000E+00  0.0000000000000E+00  0.0000000000000E+00
   416  4.1500000000000E+00  0.0000000000000E+00  0.0000000000000E+00
   417  4.1600000000000E+00  0.0000000000000E+00  0.0000000000000E+00
   418  4.1700000000000E+00  0.0000000000000E+00  0.0000000000000E+00
   419  4.1800000000000E+00  0.0000000000000E+00  0.0000000000000E+00
   420  4.1900000000000E+00  0.0000000000000E+00  0.0000000000000E+00
   421  4.2000000000000E+00  0.0000000000000E+00  0.0000000000000E+00
   422  4.2100000000000E+00  0.0000000000000E+00  0.0000000000000E+00
   423  4.2200000000000E+00  0.0000000000000E+00  0.0000000000000E+00