O     ONCVPSP-4.0.1  r_core=   1.28926   1.47061
      8.0000      6.0000      200312    zatom,zion,pspd
     8      11   1     4   600     0    pspcod,pspxc,lmax,lloc,mmax,r2well
  5.99000000  0.00000000  0.00000000    rchrg fchrg qchrg
     2     2     0     0     0    nproj
     1     1           extension_switch
   0                         9.8029402637846E+00  1.3399627387604E+00
     1  0.0000000000000E+00 -1.3188251601903E-09  1.0136166350705E-09
     2  1.0000000000000E-02  9.4379570648879E-02 -2.1471515046005E-02
     3  2.0000000000000E-02  1.8850837540435E-01 -4.2903691610007E-02
     4  3.0000000000000E-02  2.8213626907033E-01 -6.4255371356545E-02
     5  4.0000000000000E-02  3.7501434028886E-01 -8.5481776532346E-02
     6  5.0000000000000E-02  4.6689550992847E-01 -1.0653275128931E-01
     7  6.0000000000000E-02  5.5753510823302E-01 -1.2735106508853E-01
     8  7.0000000000000E-02  6.4669142527582E-01 -1.4787080021610E-01
     9  8.0000000000000E-02  7.3412623058277E-01 -1.6801584645522E-01
    10  9.0000000000000E-02  8.1960525934689E-01 -1.8769852706619E-01
    11  1.0000000000000E-01  9.0289866440006E-01 -2.0681838132800E-01
    12  1.1000000000000E-01  9.8378143497099E-01 -2.2526112988356E-01
    13  1.2000000000000E-01  1.0620337851743E+00 -2.4289784988621E-01
    14  1.3000000000000E-01  1.1374415170702E+00 -2.5958438735029E-01
    15  1.4000000000000E-01  1.2097963649336E+00 -2.7516103404211E-01
    16  1.5000000000000E-01  1.2788963290049E+00 -2.8945249559934E-01
    17  1.6000000000000E-01  1.3445460083873E+00 -3.0226817623403E-01
    18  1.7000000000000E-01  1.4065569438484E+00 -3.1340280327231E-01
    19  1.8000000000000E-01  1.4647479820168E+00 -3.2263741184512E-01
    20  1.9000000000000E-01  1.5189456727861E+00 -3.2974070622659E-01
    21  2.0000000000000E-01  1.5689847116223E+00 -3.3447080960392E-01
    22  2.1000000000000E-01  1.6147084378784E+00 -3.3657740846463E-01
    23  2.2000000000000E-01  1.6559693991512E+00 -3.3580429134976E-01
    24  2.3000000000000E-01  1.6926299901688E+00 -3.3189227451442E-01
    25  2.4000000000000E-01  1.7245631726918E+00 -3.2458249916699E-01
    26  2.5000000000000E-01  1.7516532804774E+00 -3.1362007655860E-01
    27  2.6000000000000E-01  1.7737969105417E+00 -2.9875804842435E-01
    28  2.7000000000000E-01  1.7909038988260E+00 -2.7976162132770E-01
    29  2.8000000000000E-01  1.8028983749857E+00 -2.5641262453118E-01
    30  2.9000000000000E-01  1.8097198874777E+00 -2.2851413233689E-01
    31  3.0000000000000E-01  1.8113245864988E+00 -1.9589518364149E-01
    32  3.1000000000000E-01  1.8076864487288E+00 -1.5841552397136E-01
    33  3.2000000000000E-01  1.7987985243620E+00 -1.1597028874223E-01
    34  3.3000000000000E-01  1.7846741836629E+00 -6.8494541154071E-02
    35  3.4000000000000E-01  1.7653483373735E+00 -1.5967574200856E-02
    36  3.5000000000000E-01  1.7408786028108E+00  4.1583116058213E-02
    37  3.6000000000000E-01  1.7113463855327E+00  1.0407827938810E-01
    38  3.7000000000000E-01  1.6768578450872E+00  1.7138387451874E-01
    39  3.8000000000000E-01  1.6375447126699E+00  2.4330863530279E-01
    40  3.9000000000000E-01  1.5935649285574E+00  3.1960232327942E-01
    41  4.0000000000000E-01  1.5451030679902E+00  3.9995474260321E-01
    42  4.1000000000000E-01  1.4923705257796E+00  4.8399558385013E-01
    43  4.2000000000000E-01  1.4356054323098E+00  5.7129515184327E-01
    44  4.3000000000000E-01  1.3750722767797E+00  6.6136601948833E-01
    45  4.4000000000000E-01  1.3110612174519E+00  7.5366563486527E-01
    46  4.5000000000000E-01  1.2438870632841E+00  8.4759989272186E-01
    47  4.6000000000000E-01  1.1738879165431E+00  9.4252766434011E-01
    48  4.7000000000000E-01  1.1014234717564E+00  1.0377662618105E+00
    49  4.8000000000000E-01  1.0268729725199E+00  1.1325977944043E+00
    50  4.9000000000000E-01  9.5063283414967E-01  1.2262763563518E+00
    51  5.0000000000000E-01  8.7311394679389E-01  1.3180359673060E+00
    52  5.1000000000000E-01  7.9473868027800E-01  1.4070991694925E+00
    53  5.2000000000000E-01  7.1593761848793E-01  1.4926861694180E+00
    54  5.3000000000000E-01  6.3714605736316E-01  1.5740243974134E+00
    55  5.4000000000000E-01  5.5880030642079E-01  1.6503583455961E+00
    56  5.5000000000000E-01  4.8133383902801E-01  1.7209595343756E+00
    57  5.6000000000000E-01  4.0517334124757E-01  1.7851364497116E+00
    58  5.7000000000000E-01  3.3073471288127E-01  1.8422442881975E+00
    59  5.8000000000000E-01  2.5841907722457E-01  1.8916943449018E+00
    60  5.9000000000000E-01  1.8860885793268E-01  1.9329628798766E+00
    61  6.0000000000000E-01  1.2166398222088E-01  1.9655993034198E+00
    62  6.1000000000000E-01  5.7918269332225E-02  1.9892335275585E+00
    63  6.2000000000000E-01 -2.3239382134478E-03  2.0035823417279E+00
    64  6.3000000000000E-01 -5.8790845621548E-02  2.0084546841314E+00
    65  6.4000000000000E-01 -1.1124592775010E-01  2.0037556965580E+00
    66  6.5000000000000E-01 -1.5949025532019E-01  1.9894894692404E+00
    67  6.6000000000000E-01 -2.0336438441233E-01  1.9657604033119E+00
    68  6.7000000000000E-01 -2.4274977475651E-01  1.9327731411792E+00
    69  6.8000000000000E-01 -2.7756970956547E-01  1.8908310392191E+00
    70  6.9000000000000E-01 -3.0778969749770E-01  1.8403331821570E+00
    71  7.0000000000000E-01 -3.3341734561312E-01  1.7817699637749E+00
    72  7.1000000000000E-01 -3.5450170073045E-01  1.7157172837071E+00
    73  7.2000000000000E-01 -3.7113206523681E-01  1.6428294344685E+00
    74  7.3000000000000E-01 -3.8343630195294E-01  1.5638307760088E+00
    75  7.4000000000000E-01 -3.9157865094516E-01  1.4795063164670E+00
    76  7.5000000000000E-01 -3.9575708901804E-01  1.3906913369601E+00
    77  7.6000000000000E-01 -3.9620026985323E-01  1.2982602147159E+00
    78  7.7000000000000E-01 -3.9316408922496E-01  1.2031146122901E+00
    79  7.8000000000000E-01 -3.8692792528111E-01  1.1061712106572E+00
    80  7.9000000000000E-01 -3.7779060841006E-01  1.0083491703888E+00
    81  8.0000000000000E-01 -3.6606617862240E-01  9.1055750776120E-01
    82  8.1000000000000E-01 -3.5207949058770E-01  8.1368257137603E-01
    83  8.2000000000000E-01 -3.3616172743645E-01  7.1857579972613E-01
    84  8.3000000000000E-01 -3.1864588414619E-01  6.2604193118825E-01
    85  8.4000000000000E-01 -2.9986227979060E-01  5.3682782533512E-01
    86  8.5000000000000E-01 -2.8013415517899E-01  4.5161203849180E-01
    87  8.6000000000000E-01 -2.5977340851774E-01  3.7099527744659E-01
    88  8.7000000000000E-01 -2.3907651677739E-01  2.9549183356747E-01
    89  8.8000000000000E-01 -2.1832068456512E-01  2.2552207573878E-01
    90  8.9000000000000E-01 -1.9776025556839E-01  1.6140605478379E-01
    91  9.0000000000000E-01 -1.7762341514939E-01  1.0335824968320E-01
    92  9.1000000000000E-01 -1.5810943038834E-01  5.1484603666496E-02
    93  9.2000000000000E-01 -1.3938910178158E-01  5.7948497518859E-03
    94  9.3000000000000E-01 -1.2160682403103E-01 -3.3779823754777E-02
    95  9.4000000000000E-01 -1.0488075349942E-01 -6.7380889608414E-02
    96  9.5000000000000E-01 -8.9303094623340E-02 -9.5217069665252E-02
    97  9.6000000000000E-01 -7.4940778431170E-02 -1.1755794546002E-01
    98  9.7000000000000E-01 -6.1836504809897E-02 -1.3472673024047E-01
    99  9.8000000000000E-01 -5.0010112958792E-02 -1.4709236258591E-01
   100  9.9000000000000E-01 -3.9460239390795E-02 -1.5506109235018E-01
   101  1.0000000000000E+00 -3.0166218856827E-02 -1.5906773629306E-01
   102  1.0100000000000E+00 -2.2090180301564E-02 -1.5956678509639E-01
   103  1.0200000000000E+00 -1.5179288141101E-02 -1.5702354237177E-01
   104  1.0300000000000E+00 -9.3680781532862E-03 -1.5190547268917E-01
   105  1.0400000000000E+00 -4.5808377483277E-03 -1.4467392682967E-01
   106  1.0500000000000E+00 -7.3398155991133E-04 -1.3577640178682E-01
   107  1.0600000000000E+00  2.2616240063497E-03 -1.2563947707483E-01
   108  1.0700000000000E+00  4.4984304538035E-03 -1.1466255203145E-01
   109  1.0800000000000E+00  6.0701097879957E-03 -1.0321248751411E-01
   110  1.0900000000000E+00  7.0696238514409E-03 -9.1619233676797E-02
   111  1.1000000000000E+00  7.5874883963372E-03 -8.0172500801225E-02
   112  1.1100000000000E+00  7.7102539654796E-03 -6.9119505924960E-02
   113  1.1200000000000E+00  7.5192190397065E-03 -5.8663801886657E-02
   114  1.1300000000000E+00  7.0893844760832E-03 -4.8965170709097E-02
   115  1.1400000000000E+00  6.4886517108144E-03 -4.0140538736756E-02
   116  1.1500000000000E+00  5.7772607225617E-03 -3.2265847349868E-02
   117  1.1600000000000E+00  5.0074579710841E-03 -2.5378792631456E-02
   118  1.1700000000000E+00  4.2233787194638E-03 -1.9482327351538E-02
   119  1.1800000000000E+00  3.4611235492260E-03 -1.4548803529574E-02
   120  1.1900000000000E+00  2.7490044371102E-03 -1.0524619753986E-02
   121  1.2000000000000E+00  2.1079326228553E-03 -7.3352284310969E-03
   122  1.2100000000000E+00  1.5519151258158E-03 -4.8903502250405E-03
   123  1.2200000000000E+00  1.0886485484557E-03 -3.0892489987909E-03
   124  1.2300000000000E+00  7.1938422093407E-04 -1.8251852675923E-03
   125  1.2400000000000E+00  4.3739052748168E-04 -9.8700683991996E-04
   126  1.2500000000000E+00  2.3599965043388E-04 -4.7161176430133E-04
   127  1.2600000000000E+00  1.0573121824905E-04 -1.8680783464158E-04
   128  1.2700000000000E+00  3.3920445753454E-05 -5.3410262819468E-05
   129  1.2800000000000E+00  4.8778901336464E-06 -7.1570488415920E-06
   130  1.2900000000000E+00 -3.7201805698965E-08  5.4888505918286E-08
   131  1.3000000000000E+00  2.8348691849607E-08 -3.9407725283910E-08
   132  1.31 -0.  0.
   133  1.32  0.  0.
   134  1.33  0.  0.
   135  1.34  0.  0.
   136  1.35  0.  0.
   137  1.36  0.  0.
   138  1.37  0.  0.
   139  1.38  0.  0.
   140  1.39  0.  0.
   141  1.40  0.  0.
   142  1.41  0.  0.
   143  1.42  0.  0.
   144  1.43  0.  0.
   145  1.44  0.  0.
   146  1.45  0.  0.
   147  1.46  0.  0.
   148  1.47  0.  0.
   149  1.48  0.  0.
   150  1.49  0.  0.
   151  1.50  0.  0.
   152  1.51  0.  0.
   153  1.52  0.  0.
   154  1.53  0.  0.
   155  1.54  0.  0.
   156  1.55  0.  0.
   157  1.56  0.  0.
   158  1.57  0.  0.
   159  1.58  0.  0.
   160  1.59  0.  0.
   161  1.60  0.  0.
   162  1.61  0.  0.
   163  1.62  0.  0.
   164  1.63  0.  0.
   165  1.64  0.  0.
   166  1.65  0.  0.
   167  1.66  0.  0.
   168  1.67  0.  0.
   169  1.68  0.  0.
   170  1.69  0.  0.
   171  1.70  0.  0.
   172  1.71  0.  0.
   173  1.72  0.  0.
   174  1.73  0.  0.
   175  1.74  0.  0.
   176  1.75  0.  0.
   177  1.76  0.  0.
   178  1.77  0.  0.
   179  1.78  0.  0.
   180  1.79  0.  0.
   181  1.80  0.  0.
   182  1.81  0.  0.
   183  1.82  0.  0.
   184  1.83  0.  0.
   185  1.84  0.  0.
   186  1.85  0.  0.
   187  1.86  0.  0.
   188  1.87  0.  0.
   189  1.88  0.  0.
   190  1.89  0.  0.
   191  1.90  0.  0.
   192  1.91  0.  0.
   193  1.92  0.  0.
   194  1.93  0.  0.
   195  1.94  0.  0.
   196  1.95  0.  0.
   197  1.96  0.  0.
   198  1.97  0.  0.
   199  1.98  0.  0.
   200  1.99  0.  0.
   201  2.00  0.  0.
   202  2.01  0.  0.
   203  2.02  0.  0.
   204  2.03  0.  0.
   205  2.04  0.  0.
   206  2.05  0.  0.
   207  2.06  0.  0.
   208  2.07  0.  0.
   209  2.08  0.  0.
   210  2.09  0.  0.
   211  2.10  0.  0.
   212  2.11  0.  0.
   213  2.12  0.  0.
   214  2.13  0.  0.
   215  2.14  0.  0.
   216  2.15  0.  0.
   217  2.16  0.  0.
   218  2.17  0.  0.
   219  2.18  0.  0.
   220  2.19  0.  0.
   221  2.20  0.  0.
   222  2.21  0.  0.
   223  2.22  0.  0.
   224  2.23  0.  0.
   225  2.24  0.  0.
   226  2.25  0.  0.
   227  2.26  0.  0.
   228  2.27  0.  0.
   229  2.28  0.  0.
   230  2.29  0.  0.
   231  2.30  0.  0.
   232  2.31  0.  0.
   233  2.32  0.  0.
   234  2.33  0.  0.
   235  2.34  0.  0.
   236  2.35  0.  0.
   237  2.36  0.  0.
   238  2.37  0.  0.
   239  2.38  0.  0.
   240  2.39  0.  0.
   241  2.40  0.  0.
   242  2.41  0.  0.
   243  2.42  0.  0.
   244  2.43  0.  0.
   245  2.44  0.  0.
   246  2.45  0.  0.
   247  2.46  0.  0.
   248  2.47  0.  0.
   249  2.48  0.  0.
   250  2.49  0.  0.
   251  2.50  0.  0.
   252  2.51  0.  0.
   253  2.52  0.  0.
   254  2.53  0.  0.
   255  2.54  0.  0.
   256  2.55  0.  0.
   257  2.56  0.  0.
   258  2.57  0.  0.
   259  2.58  0.  0.
   260  2.59  0.  0.
   261  2.60  0.  0.
   262  2.61  0.  0.
   263  2.62  0.  0.
   264  2.63  0.  0.
   265  2.64  0.  0.
   266  2.65  0.  0.
   267  2.66  0.  0.
   268  2.67  0.  0.
   269  2.68  0.  0.
   270  2.69  0.  0.
   271  2.70  0.  0.
   272  2.71  0.  0.
   273  2.72  0.  0.
   274  2.73  0.  0.
   275  2.74  0.  0.
   276  2.75  0.  0.
   277  2.76  0.  0.
   278  2.77  0.  0.
   279  2.78  0.  0.
   280  2.79  0.  0.
   281  2.80  0.  0.
   282  2.81  0.  0.
   283  2.82  0.  0.
   284  2.83  0.  0.
   285  2.84  0.  0.
   286  2.85  0.  0.
   287  2.86  0.  0.
   288  2.87  0.  0.
   289  2.88  0.  0.
   290  2.89  0.  0.
   291  2.90  0.  0.
   292  2.91  0.  0.
   293  2.92  0.  0.
   294  2.93  0.  0.
   295  2.94  0.  0.
   296  2.95  0.  0.
   297  2.96  0.  0.
   298  2.97  0.  0.
   299  2.98  0.  0.
   300  2.99  0.  0.
   301  3.00  0.  0.
   302  3.01  0.  0.
   303  3.02  0.  0.
   304  3.03  0.  0.
   305  3.04  0.  0.
   306  3.05  0.  0.
   307  3.06  0.  0.
   308  3.07  0.  0.
   309  3.08  0.  0.
   310  3.09  0.  0.
   311  3.10  0.  0.
   312  3.11  0.  0.
   313  3.12  0.  0.
   314  3.13  0.  0.
   315  3.14  0.  0.
   316  3.15  0.  0.
   317  3.16  0.  0.
   318  3.17  0.  0.
   319  3.18  0.  0.
   320  3.19  0.  0.
   321  3.20  0.  0.
   322  3.21  0.  0.
   323  3.22  0.  0.
   324  3.23  0.  0.
   325  3.24  0.  0.
   326  3.25  0.  0.
   327  3.26  0.  0.
   328  3.27  0.  0.
   329  3.28  0.  0.
   330  3.29  0.  0.
   331  3.30  0.  0.
   332  3.31  0.  0.
   333  3.32  0.  0.
   334  3.33  0.  0.
   335  3.34  0.  0.
   336  3.35  0.  0.
   337  3.36  0.  0.
   338  3.37  0.  0.
   339  3.38  0.  0.
   340  3.39  0.  0.
   341  3.40  0.  0.
   342  3.41  0.  0.
   343  3.42  0.  0.
   344  3.43  0.  0.
   345  3.44  0.  0.
   346  3.45  0.  0.
   347  3.46  0.  0.
   348  3.47  0.  0.
   349  3.48  0.  0.
   350  3.49  0.  0.
   351  3.50  0.  0.
   352  3.51  0.  0.
   353  3.52  0.  0.
   354  3.53  0.  0.
   355  3.54  0.  0.
   356  3.55  0.  0.
   357  3.56  0.  0.
   358  3.57  0.  0.
   359  3.58  0.  0.
   360  3.59  0.  0.
   361  3.60  0.  0.
   362  3.61  0.  0.
   363  3.62  0.  0.
   364  3.63  0.  0.
   365  3.64  0.  0.
   366  3.65  0.  0.
   367  3.66  0.  0.
   368  3.67  0.  0.
   369  3.68  0.  0.
   370  3.69  0.  0.
   371  3.70  0.  0.
   372  3.71  0.  0.
   373  3.72  0.  0.
   374  3.73  0.  0.
   375  3.74  0.  0.
   376  3.75  0.  0.
   377  3.76  0.  0.
   378  3.77  0.  0.
   379  3.78  0.  0.
   380  3.79  0.  0.
   381  3.80  0.  0.
   382  3.81  0.  0.
   383  3.82  0.  0.
   384  3.83  0.  0.
   385  3.84  0.  0.
   386  3.85  0.  0.
   387  3.86  0.  0.
   388  3.87  0.  0.
   389  3.88  0.  0.
   390  3.89  0.  0.
   391  3.90  0.  0.
   392  3.91  0.  0.
   393  3.92  0.  0.
   394  3.93  0.  0.
   395  3.94  0.  0.
   396  3.95  0.  0.
   397  3.96  0.  0.
   398  3.97  0.  0.
   399  3.98  0.  0.
   400  3.99  0.  0.
   401  4.00  0.  0.
   402  4.01  0.  0.
   403  4.02  0.  0.
   404  4.03  0.  0.
   405  4.04  0.  0.
   406  4.05  0.  0.
   407  4.06  0.  0.
   408  4.07  0.  0.
   409  4.08  0.  0.
   410  4.09  0.  0.
   411  4.10  0.  0.
   412  4.11  0.  0.
   413  4.12  0.  0.
   414  4.13  0.  0.
   415  4.14  0.  0.
   416  4.15  0.  0.
   417  4.16  0.  0.
   418  4.17  0.  0.
   419  4.18  0.  0.
   420  4.19  0.  0.
   421  4.20  0.  0.
   422  4.21  0.  0.
   423  4.22  0.  0.
   424  4.23  0.  0.
   425  4.24  0.  0.
   426  4.25  0.  0.
   427  4.26  0.  0.
   428  4.27  0.  0.
   429  4.28  0.  0.
   430  4.29  0.  0.
   431  4.30  0.  0.
   432  4.31  0.  0.
   433  4.32  0.  0.
   434  4.33  0.  0.
   435  4.34  0.  0.
   436  4.35  0.  0.
   437  4.36  0.  0.
   438  4.37  0.  0.
   439  4.38  0.  0.
   440  4.39  0.  0.
   441  4.40  0.  0.
   442  4.41  0.  0.
   443  4.42  0.  0.
   444  4.43  0.  0.
   445  4.44  0.  0.
   446  4.45  0.  0.
   447  4.46  0.  0.
   448  4.47  0.  0.
   449  4.48  0.  0.
   450  4.49  0.  0.
   451  4.50  0.  0.
   452  4.51  0.  0.
   453  4.52  0.  0.
   454  4.53  0.  0.
   455  4.54  0.  0.
   456  4.55  0.  0.
   457  4.56  0.  0.
   458  4.57  0.  0.
   459  4.58  0.  0.
   460  4.59  0.  0.
   461  4.60  0.  0.
   462  4.61  0.  0.
   463  4.62  0.  0.
   464  4.63  0.  0.
   465  4.64  0.  0.
   466  4.65  0.  0.
   467  4.66  0.  0.
   468  4.67  0.  0.
   469  4.68  0.  0.
   470  4.69  0.  0.
   471  4.70  0.  0.
   472  4.71  0.  0.
   473  4.72  0.  0.
   474  4.73  0.  0.
   475  4.74  0.  0.
   476  4.75  0.  0.
   477  4.76  0.  0.
   478  4.77  0.  0.
   479  4.78  0.  0.
   480  4.79  0.  0.
   481  4.80  0.  0.
   482  4.81  0.  0.
   483  4.82  0.  0.
   484  4.83  0.  0.
   485  4.84  0.  0.
   486  4.85  0.  0.
   487  4.86  0.  0.
   488  4.87  0.  0.
   489  4.88  0.  0.
   490  4.89  0.  0.
   491  4.90  0.  0.
   492  4.91  0.  0.
   493  4.92  0.  0.
   494  4.93  0.  0.
   495  4.94  0.  0.
   496  4.95  0.  0.
   497  4.96  0.  0.
   498  4.97  0.  0.
   499  4.98  0.  0.
   500  4.99  0.  0.
   501  5.00  0.  0.
   502  5.01  0.  0.
   503  5.02  0.  0.
   504  5.03  0.  0.
   505  5.04  0.  0.
   506  5.05  0.  0.
   507  5.06  0.  0.
   508  5.07  0.  0.
   509  5.08  0.  0.
   510  5.09  0.  0.
   511  5.10  0.  0.
   512  5.11  0.  0.
   513  5.12  0.  0.
   514  5.13  0.  0.
   515  5.14  0.  0.
   516  5.15  0.  0.
   517  5.16  0.  0.
   518  5.17  0.  0.
   519  5.18  0.  0.
   520  5.19  0.  0.
   521  5.20  0.  0.
   522  5.21  0.  0.
   523  5.22  0.  0.
   524  5.23  0.  0.
   525  5.24  0.  0.
   526  5.25  0.  0.
   527  5.26  0.  0.
   528  5.27  0.  0.
   529  5.28  0.  0.
   530  5.29  0.  0.
   531  5.30  0.  0.
   532  5.31  0.  0.
   533  5.32  0.  0.
   534  5.33  0.  0.
   535  5.34  0.  0.
   536  5.35  0.  0.
   537  5.36  0.  0.
   538  5.37  0.  0.
   539  5.38  0.  0.
   540  5.39  0.  0.
   541  5.40  0.  0.
   542  5.41  0.  0.
   543  5.42  0.  0.
   544  5.43  0.  0.
   545  5.44  0.  0.
   546  5.45  0.  0.
   547  5.46  0.  0.
   548  5.47  0.  0.
   549  5.48  0.  0.
   550  5.49  0.  0.
   551  5.50  0.  0.
   552  5.51  0.  0.
   553  5.52  0.  0.
   554  5.53  0.  0.
   555  5.54  0.  0.
   556  5.55  0.  0.
   557  5.56  0.  0.
   558  5.57  0.  0.
   559  5.58  0.  0.
   560  5.59  0.  0.
   561  5.60  0.  0.
   562  5.61  0.  0.
   563  5.62  0.  0.
   564  5.63  0.  0.
   565  5.64  0.  0.
   566  5.65  0.  0.
   567  5.66  0.  0.
   568  5.67  0.  0.
   569  5.68  0.  0.
   570  5.69  0.  0.
   571  5.70  0.  0.
   572  5.71  0.  0.
   573  5.72  0.  0.
   574  5.73  0.  0.
   575  5.74  0.  0.
   576  5.75  0.  0.
   577  5.76  0.  0.
   578  5.77  0.  0.
   579  5.78  0.  0.
   580  5.79  0.  0.
   581  5.80  0.  0.
   582  5.81  0.  0.
   583  5.82  0.  0.
   584  5.83  0.  0.
   585  5.84  0.  0.
   586  5.85  0.  0.
   587  5.86  0.  0.
   588  5.87  0.  0.
   589  5.88  0.  0.
   590  5.89  0.  0.
   591  5.90  0.  0.
   592  5.91  0.  0.
   593  5.92  0.  0.
   594  5.93  0.  0.
   595  5.94  0.  0.
   596  5.95  0.  0.
   597  5.96  0.  0.
   598  5.97  0.  0.
   599  5.98  0.  0.
   600  5.99  0.  0.
   1                        -3.6612943423583E+00 -1.0856843236317E+00
     1  0.0000000000000E+00  1.6476071007521E-08 -2.2174759528593E-08
     2  1.0000000000000E-02  2.3518041084404E-03 -1.0728564621694E-03
     3  2.0000000000000E-02  9.3839310214377E-03 -4.2660835566617E-03
     4  3.0000000000000E-02  2.1026959238533E-02 -9.5042255187860E-03
     5  4.0000000000000E-02  3.7166625347701E-02 -1.6663412909939E-02
     6  5.0000000000000E-02  5.7645947774814E-02 -2.5574150814198E-02
     7  6.0000000000000E-02  8.2268131090903E-02 -3.6025129324940E-02
     8  7.0000000000000E-02  1.1080018384209E-01 -4.7767965933636E-02
     9  8.0000000000000E-02  1.4297716639100E-01 -6.0522767258232E-02
    10  9.0000000000000E-02  1.7850697070863E-01 -7.3984377998992E-02
    11  1.0000000000000E-01  2.1707552176983E-01 -8.7829168544342E-02
    12  1.1000000000000E-01  2.5835228047463E-01 -1.0172219966201E-01
    13  1.2000000000000E-01  3.0199592107127E-01 -1.1532459351205E-01
    14  1.3000000000000E-01  3.4766005206729E-01 -1.2830093503773E-01
    15  1.4000000000000E-01  3.9499884868317E-01 -1.4032652676164E-01
    16  1.5000000000000E-01  4.4367246706623E-01 -1.5109432318160E-01
    17  1.6000000000000E-01  4.9335211570373E-01 -1.6032137826816E-01
    18  1.7000000000000E-01  5.4372466765027E-01 -1.6775465086449E-01
    19  1.8000000000000E-01  5.9449670814231E-01 -1.7317602783738E-01
    20  1.9000000000000E-01  6.4539792567690E-01 -1.7640644329678E-01
    21  2.0000000000000E-01  6.9618377038671E-01 -1.7730899368016E-01
    22  2.1000000000000E-01  7.4663732119986E-01 -1.7579097250566E-01
    23  2.2000000000000E-01  7.9657032243777E-01 -1.7180477459066E-01
    24  2.3000000000000E-01  8.4582337074528E-01 -1.6534764691759E-01
    25  2.4000000000000E-01  8.9426525410363E-01 -1.5646029147559E-01
    26  2.5000000000000E-01  9.4179146567340E-01 -1.4522435366218E-01
    27  2.6000000000000E-01  9.8832193586363E-01 -1.3175885753341E-01
    28  2.7000000000000E-01  1.0337980458443E+00 -1.1621567568667E-01
    29  2.8000000000000E-01  1.0781790042443E+00 -9.8774146216303E-02
    30  2.9000000000000E-01  1.1214376855614E+00 -7.9634971400287E-02
    31  3.0000000000000E-01  1.1635560434486E+00 -5.9013552007653E-02
    32  3.1000000000000E-01  1.2045202241645E+00 -3.7132926878444E-02
    33  3.2000000000000E-01  1.2443155147763E+00 -1.4216499308536E-02
    34  3.3000000000000E-01  1.2829212669298E+00  9.5192605537083E-03
    35  3.4000000000000E-01  1.3203059399680E+00  3.3871944856530E-02
    36  3.5000000000000E-01  1.3564224067732E+00  5.8659977633398E-02
    37  3.6000000000000E-01  1.3912036618980E+00  8.3728839663411E-02
    38  3.7000000000000E-01  1.4245590643640E+00  1.0895657389831E-01
    39  3.8000000000000E-01  1.4563712370729E+00  1.3425841155887E-01
    40  3.9000000000000E-01  1.4864937312776E+00  1.5959037787009E-01
    41  4.0000000000000E-01  1.5147495482643E+00  1.8495175895114E-01
    42  4.1000000000000E-01  1.5409305916323E+00  2.1038633712930E-01
    43  4.2000000000000E-01  1.5647981027196E+00  2.3598233035768E-01
    44  4.3000000000000E-01  1.5860841092455E+00  2.6187100186150E-01
    45  4.4000000000000E-01  1.6044938936190E+00  2.8822393794280E-01
    46  4.5000000000000E-01  1.6197094631121E+00  3.1524902432105E-01
    47  4.6000000000000E-01  1.6313939797576E+00  3.4318518373337E-01
    48  4.7000000000000E-01  1.6391970839525E+00  3.7229596901369E-01
    49  4.8000000000000E-01  1.6427610228878E+00  4.0286213577070E-01
    50  4.9000000000000E-01  1.6417274735985E+00  4.3517334637399E-01
    51  5.0000000000000E-01  1.6357449311630E+00  4.6951918155930E-01
    52  5.1000000000000E-01  1.6244765158218E+00  5.0617965696319E-01
    53  5.2000000000000E-01  1.6076080389754E+00  5.4541545874757E-01
    54  5.3000000000000E-01  1.5848561574932E+00  5.8745812472278E-01
    55  5.4000000000000E-01  1.5559764388286E+00  6.3250040466092E-01
    56  5.5000000000000E-01  1.5207711562913E+00  6.8068703556390E-01
    57  5.6000000000000E-01  1.4790966346118E+00  7.3210616437357E-01
    58  5.7000000000000E-01  1.4308699706944E+00  7.8678164197242E-01
    59  5.8000000000000E-01  1.3760749631383E+00  8.4466639842929E-01
    60  5.9000000000000E-01  1.3147670965994E+00  9.0563709052414E-01
    61  6.0000000000000E-01  1.2470774431337E+00  9.6949018898675E-01
    62  6.1000000000000E-01  1.1732153620142E+00  1.0359396450642E+00
    63  6.2000000000000E-01  1.0934699017714E+00  1.1046162445551E+00
    64  6.3000000000000E-01  1.0082098329232E+00  1.1750687229641E+00
    65  6.4000000000000E-01  9.1788226652176E-01  1.2467666786755E+00
    66  6.5000000000000E-01  8.2300984171042E-01  1.3191052828067E+00
    67  6.6000000000000E-01  7.2418649433793E-01  1.3914117455216E+00
    68  6.7000000000000E-01  6.2207184772176E-01  1.4629534599314E+00
    69  6.8000000000000E-01  5.1738429524098E-01  1.5329477071434E+00
    70  6.9000000000000E-01  4.1089287195198E-01  1.6005727704135E+00
    71  7.0000000000000E-01  3.0340803824657E-01  1.6649802735239E+00
    72  7.1000000000000E-01  1.9577152212692E-01  1.7253085292373E+00
    73  7.2000000000000E-01  8.8845387426819E-02  1.7806966586520E+00
    74  7.3000000000000E-01 -1.6499487223008E-02  1.8302992221469E+00
    75  7.4000000000000E-01 -1.1939532011023E-01  1.8733010878426E+00
    76  7.5000000000000E-01 -2.1898952051398E-01  1.9089322545406E+00
    77  7.6000000000000E-01 -3.1445675133905E-01  1.9364823431976E+00
    78  7.7000000000000E-01 -4.0501074547153E-01  1.9553144742842E+00
    79  7.8000000000000E-01 -4.8991566446257E-01  1.9648782578809E+00
    80  7.9000000000000E-01 -5.6849679604316E-01  1.9647216389279E+00
    81  8.0000000000000E-01 -6.4015039918095E-01  1.9545013614068E+00
    82  8.1000000000000E-01 -7.0435252167541E-01  1.9339918419695E+00
    83  8.2000000000000E-01 -7.6066663532826E-01  1.9030922751285E+00
    84  8.3000000000000E-01 -8.0874995710741E-01  1.8618318279159E+00
    85  8.4000000000000E-01 -8.4835835096504E-01  1.8103728211764E+00
    86  8.5000000000000E-01 -8.7934973351853E-01  1.7490118365402E+00
    87  8.6000000000000E-01 -9.0168593705672E-01  1.6781787317366E+00
    88  8.7000000000000E-01 -9.1543301464776E-01  1.5984335913089E+00
    89  8.8000000000000E-01 -9.2076000383056E-01  1.5104616840166E+00
    90  8.9000000000000E-01 -9.1793619685122E-01  1.4150665414934E+00
    91  9.0000000000000E-01 -9.0732699486752E-01  1.3131613101812E+00
    92  9.1000000000000E-01 -8.8938818522194E-01  1.2057576102912E+00
    93  9.2000000000000E-01 -8.6465563830338E-01  1.0939414251092E+00
    94  9.3000000000000E-01 -8.3373255510689E-01  9.7884517514371E-01
    95  9.4000000000000E-01 -7.9727859147310E-01  8.6163023852907E-01
    96  9.5000000000000E-01 -7.5599862603423E-01  7.4347027286483E-01
    97  9.6000000000000E-01 -7.1063102684646E-01  6.2553430129600E-01
    98  9.7000000000000E-01 -6.6193563058016E-01  5.0896986957041E-01
    99  9.8000000000000E-01 -6.1068165293923E-01  3.9488658579616E-01
   100  9.9000000000000E-01 -5.5763574788333E-01  2.8434034697393E-01
   101  1.0000000000000E+00 -5.0355042765529E-01  1.7831854233387E-01
   102  1.0100000000000E+00 -4.4915304621796E-01  7.7726504725934E-02
   103  1.0200000000000E+00 -3.9513553491307E-01 -1.6624544230026E-02
   104  1.0300000000000E+00 -3.4214506202540E-01 -1.0402783903564E-01
   105  1.0400000000000E+00 -2.9077576711700E-01 -1.8388952408860E-01
   106  1.0500000000000E+00 -2.4156169778275E-01 -2.5573507260352E-01
   107  1.0600000000000E+00 -1.9497105036551E-01 -3.1921356877187E-01
   108  1.0700000000000E+00 -1.5140178888191E-01 -3.7409979349403E-01
   109  1.0800000000000E+00 -1.1117868736245E-01 -4.2029409884284E-01
   110  1.0900000000000E+00 -7.4551811700523E-02 -4.5782010012551E-01
   111  1.1000000000000E+00 -4.1696427636999E-02 -4.8682025843915E-01
   112  1.1100000000000E+00 -1.2714293114119E-02 -5.0754946789342E-01
   113  1.1200000000000E+00  1.2363734223486E-02 -5.2036680137331E-01
   114  1.1300000000000E+00  3.3573868934116E-02 -5.2572560418109E-01
   115  1.1400000000000E+00  5.1014466628119E-02 -5.2416215649911E-01
   116  1.1500000000000E+00  6.4840127654349E-02 -5.1628315274720E-01
   117  1.1600000000000E+00  7.5254990112372E-02 -5.0275226666002E-01
   118  1.1700000000000E+00  8.2505380314454E-02 -4.8427608718885E-01
   119  1.1800000000000E+00  8.6871997908679E-02 -4.6158971895652E-01
   120  1.1900000000000E+00  8.8661818601405E-02 -4.3544234472933E-01
   121  1.2000000000000E+00  8.8199898552065E-02 -4.0658304362474E-01
   122  1.2100000000000E+00  8.5821261831100E-02 -3.7574714932658E-01
   123  1.2200000000000E+00  8.1863045709621E-02 -3.4364341715796E-01
   124  1.2300000000000E+00  7.6657067933722E-02 -3.1094224724966E-01
   125  1.2400000000000E+00  7.0522966387392E-02 -2.7826518507924E-01
   126  1.2500000000000E+00  6.3762044218932E-02 -2.4617588910523E-01
   127  1.2600000000000E+00  5.6651933993942E-02 -2.1517272096070E-01
   128  1.2700000000000E+00  4.9442172180796E-02 -1.8568307524418E-01
   129  1.2800000000000E+00  4.2350751638025E-02 -1.5805952593341E-01
   130  1.2900000000000E+00  3.5561695026922E-02 -1.3257782519654E-01
   131  1.3000000000000E+00  2.9223666373494E-02 -1.0943674790003E-01
   132  1.3100000000000E+00  2.3449612909471E-02 -8.8759734312348E-02
   133  1.3200000000000E+00  1.8317404373524E-02 -7.0598243169417E-02
   134  1.3300000000000E+00  1.3871413404417E-02 -5.4936689727826E-02
   135  1.3400000000000E+00  1.0124958835375E-02 -4.1698808995986E-02
   136  1.3500000000000E+00  7.0635140931271E-03 -3.0755253798076E-02
   137  1.3600000000000E+00  4.6485657977520E-03 -2.1932211090395E-02
   138  1.3700000000000E+00  2.8219917555430E-03 -1.5020796717397E-02
   139  1.3800000000000E+00  1.5108482013179E-03 -9.7870132838142E-03
   140  1.3900000000000E+00  6.3227353167955E-04 -5.9818232425839E-03
   141  1.4000000000000E+00  9.9789078487939E-05 -3.3528957300082E-03
   142  1.4100000000000E+00 -1.6255469589975E-04 -1.6663008853275E-03
   143  1.4200000000000E+00 -2.3777944495585E-04 -6.8723529862507E-04
   144  1.4300000000000E+00 -2.0505300959156E-04 -1.9679278640217E-04
   145  1.4400000000000E+00 -1.2887506399912E-04 -8.3898651116067E-06
   146  1.4500000000000E+00 -5.5851094982796E-05  2.5913057403815E-05
   147  1.4600000000000E+00 -1.1824956515826E-05  9.9661493909198E-06
   148  1.4700000000000E+00 -6.4203634446929E-08  9.3493675798874E-08
   149  1.4800000000000E+00 -2.5185380649402E-08  3.1168977044207E-08
   150  1.4900000000000E+00  1.2961640880154E-08 -1.2069724938196E-08
   151  1.50 -0.  0.