O     ONCVPSP-4.0.1  r_core=   1.28926   1.47061
      8.0000      6.0000      200312    zatom,zion,pspd
     8       2   1     4   600     0    pspcod,pspxc,lmax,lloc,mmax,r2well
  5.99000000  0.00000000  0.00000000    rchrg fchrg qchrg
     2     2     0     0     0    nproj
     1     1           extension_switch
   0                         9.7698151978919E+00  1.3334358839814E+00
     1  0.0000000000000E+00 -1.3136873810993E-09  1.0253604909582E-09
     2  1.0000000000000E-02  9.4435696450572E-02 -2.1788164677669E-02
     3  2.0000000000000E-02  1.8861974086561E-01 -4.3532793159317E-02
     4  3.0000000000000E-02  2.8230111343504E-01 -6.5188584983888E-02
     5  4.0000000000000E-02  3.7523005115904E-01 -8.6706730832775E-02
     6  5.0000000000000E-02  4.6715865751060E-01 -1.0803320759397E-01
     7  6.0000000000000E-02  5.5784149060013E-01 -1.2910713366777E-01
     8  7.0000000000000E-02  6.4703612429400E-01 -1.4985920594427E-01
     9  8.0000000000000E-02  7.3450367805286E-01 -1.7021024090829E-01
    10  9.0000000000000E-02  8.2000931280830E-01 -1.9006984344999E-01
    11  1.0000000000000E-01  9.0332269193412E-01 -2.0933522808244E-01
    12  1.1000000000000E-01  9.8421840822633E-01 -2.2789021828069E-01
    13  1.2000000000000E-01  1.0624763797170E+00 -2.4560445044478E-01
    14  1.3000000000000E-01  1.1378822190387E+00 -2.6233280943232E-01
    15  1.4000000000000E-01  1.2102275828547E+00 -2.7791512258572E-01
    16  1.5000000000000E-01  1.2793105095040E+00 -2.9217613858405E-01
    17  1.6000000000000E-01  1.3449357544082E+00 -3.0492581617853E-01
    18  1.7000000000000E-01  1.4069151338861E+00 -3.1595994583809E-01
    19  1.8000000000000E-01  1.4650678887678E+00 -3.2506112447059E-01
    20  1.9000000000000E-01  1.5192210795343E+00 -3.3200009965340E-01
    21  2.0000000000000E-01  1.5692100246131E+00 -3.3653749518696E-01
    22  2.1000000000000E-01  1.6148787928887E+00 -3.3842592428671E-01
    23  2.2000000000000E-01  1.6560807604448E+00 -3.3741249039459E-01
    24  2.3000000000000E-01  1.6926792400384E+00 -3.3324166849336E-01
    25  2.4000000000000E-01  1.7245481898308E+00 -3.2565855204605E-01
    26  2.5000000000000E-01  1.7515730055028E+00 -3.1441244239268E-01
    27  2.6000000000000E-01  1.7736513971026E+00 -2.9926074877512E-01
    28  2.7000000000000E-01  1.7906943488806E+00 -2.7997315831284E-01
    29  2.8000000000000E-01  1.8026271570179E+00 -2.5633602642095E-01
    30  2.9000000000000E-01  1.8093905366439E+00 -2.2815692956962E-01
    31  3.0000000000000E-01  1.8109417859512E+00 -1.9526931415983E-01
    32  3.1000000000000E-01  1.8072559916467E+00 -1.5753716787322E-01
    33  3.2000000000000E-01  1.7983272565332E+00 -1.1485963337662E-01
    34  3.3000000000000E-01  1.7841699267917E+00 -6.7175478956090E-02
    35  3.4000000000000E-01  1.7648197936383E+00 -1.4467336729501E-02
    36  3.5000000000000E-01  1.7403352415547E+00  4.3234383259706E-02
    37  3.6000000000000E-01  1.7107983133277E+00  1.0584799537126E-01
    38  3.7000000000000E-01  1.6763156607694E+00  1.7323754815076E-01
    39  3.8000000000000E-01  1.6370193492834E+00  2.4521042935523E-01
    40  3.9000000000000E-01  1.5930674844648E+00  3.2151564873819E-01
    41  4.0000000000000E-01  1.5446446296965E+00  4.0184287380672E-01
    42  4.1000000000000E-01  1.4919619852732E+00  4.8582228446165E-01
    43  4.2000000000000E-01  1.4352573019299E+00  5.7302530122493E-01
    44  4.3000000000000E-01  1.3747945047812E+00  6.6296622878450E-01
    45  4.4000000000000E-01  1.3108630075390E+00  7.5510484203210E-01
    46  4.5000000000000E-01  1.2437767014244E+00  8.4884992586854E-01
    47  4.6000000000000E-01  1.1738726083532E+00  9.4356376307745E-01
    48  4.7000000000000E-01  1.1015091936561E+00  1.0385675468380E+00
    49  4.8000000000000E-01  1.0270643396954E+00  1.1331476763012E+00
    50  4.9000000000000E-01  9.5093298814232E-01  1.2265628754646E+00
    51  5.0000000000000E-01  8.7352446523985E-01  1.3180520577310E+00
    52  5.1000000000000E-01  7.9525951097472E-01  1.4068428414216E+00
    53  5.2000000000000E-01  7.1656703955799E-01  1.4921606055281E+00
    54  5.3000000000000E-01  6.3788066483147E-01  1.5732379605101E+00
    55  5.4000000000000E-01  5.5963503002660E-01  1.6493244963401E+00
    56  5.5000000000000E-01  4.8226198656726E-01  1.7196966596041E+00
    57  5.6000000000000E-01  4.0618667119410E-01  1.7836676035684E+00
    58  5.7000000000000E-01  3.3182353447933E-01  1.8405968499875E+00
    59  5.8000000000000E-01  2.5957237668998E-01  1.8898995992377E+00
    60  5.9000000000000E-01  1.8981444885997E-01  1.9310555262604E+00
    61  6.0000000000000E-01  1.2290867777913E-01  1.9636169038643E+00
    62  6.1000000000000E-01  5.9188073356607E-02  1.9872159021609E+00
    63  6.2000000000000E-01 -1.0436245539449E-03  2.0015709232417E+00
    64  6.3000000000000E-01 -5.7515005265562E-02  2.0064918435004E+00
    65  6.4000000000000E-01 -1.0998970127537E-01  2.0018840520634E+00
    66  6.5000000000000E-01 -1.5826871076257E-01  1.9877511923369E+00
    67  6.6000000000000E-01 -2.0219228770086E-01  1.9641965343860E+00
    68  6.7000000000000E-01 -2.4164136513223E-01  1.9314229283314E+00
    69  6.8000000000000E-01 -2.7653848429613E-01  1.8897313127490E+00
    70  6.9000000000000E-01 -3.0684821004808E-01  1.8395177767195E+00
    71  7.0000000000000E-01 -3.3257702118171E-01  1.7812691991783E+00
    72  7.1000000000000E-01 -3.5377267272017E-01  1.7155575140532E+00
    73  7.2000000000000E-01 -3.7052303579426E-01  1.6430326738113E+00
    74  7.3000000000000E-01 -3.8295442919443E-01  1.5644144069504E+00
    75  7.4000000000000E-01 -3.9122946489562E-01  1.4804828861516E+00
    76  7.5000000000000E-01 -3.9554443763161E-01  1.3920684427980E+00
    77  7.6000000000000E-01 -3.9612629577305E-01  1.3000404799091E+00
    78  7.7000000000000E-01 -3.9322923718710E-01  1.2052957488814E+00
    79  7.8000000000000E-01 -3.8713097928749E-01  1.1087461654249E+00
    80  7.9000000000000E-01 -3.7812875700267E-01  1.0113063465117E+00
    81  8.0000000000000E-01 -3.6653510580064E-01  9.1388105282107E-01
    82  8.1000000000000E-01 -3.5267348913782E-01  8.1735271999964E-01
    83  8.2000000000000E-01 -3.3687383070194E-01  7.2256925703882E-01
    84  8.3000000000000E-01 -3.1946801157483E-01  6.3033228129682E-01
    85  8.4000000000000E-01 -3.0078539096210E-01  5.4138594732155E-01
    86  8.5000000000000E-01 -2.8114840645832E-01  4.5640651091559E-01
    87  8.6000000000000E-01 -2.6086830600589E-01  3.7599275115288E-01
    88  8.7000000000000E-01 -2.4024105885180E-01  3.0065735170617E-01
    89  8.8000000000000E-01 -2.1954348702451E-01  2.3081931933732E-01
    90  8.9000000000000E-01 -1.9902965222540E-01  1.6679749198281E-01
    91  9.0000000000000E-01 -1.7892752668368E-01  1.0880516703121E-01
    92  9.1000000000000E-01 -1.5943620241796E-01  5.6947044642565E-02
    93  9.2000000000000E-01 -1.4072640712882E-01  1.1232001564793E-02
    94  9.3000000000000E-01 -1.2294266133050E-01 -2.8408689353159E-02
    95  9.4000000000000E-01 -1.0620345022694E-01 -6.2115486924708E-02
    96  9.5000000000000E-01 -9.0601498429239E-02 -9.0095260080413E-02
    97  9.6000000000000E-01 -7.6204431952437E-02 -1.1261500075974E-01
    98  9.7000000000000E-01 -6.3055799902820E-02 -1.2999470715674E-01
    99  9.8000000000000E-01 -5.1176420942939E-02 -1.4259959527102E-01
   100  9.9000000000000E-01 -4.0566014746568E-02 -1.5083180652900E-01
   101  1.0000000000000E+00 -3.1205074529890E-02 -1.5512178661983E-01
   102  1.0100000000000E+00 -2.3056933663358E-02 -1.5591951426968E-01
   103  1.0200000000000E+00 -1.6069977382750E-02 -1.5368575838875E-01
   104  1.0300000000000E+00 -1.0179949752551E-02 -1.4888353788932E-01
   105  1.0400000000000E+00 -5.3123062873554E-03 -1.4196995060835E-01
   106  1.0500000000000E+00 -1.3845639771115E-03 -1.3338852636997E-01
   107  1.0600000000000E+00  1.6913971565330E-03 -1.2356224453945E-01
   108  1.0700000000000E+00  4.0071235132508E-03 -1.1288733885941E-01
   109  1.0800000000000E+00  5.6555067148938E-03 -1.0172799224600E-01
   110  1.0900000000000E+00  6.7288651548679E-03 -9.0412002108194E-02
   111  1.1000000000000E+00  7.3172161525688E-03 -7.9227473116294E-02
   112  1.1100000000000E+00  7.5067605518942E-03 -6.8420569687175E-02
   113  1.1200000000000E+00  7.3785953057975E-03 -5.8194335483581E-02
   114  1.1300000000000E+00  7.0076827780609E-03 -4.8708634116032E-02
   115  1.1400000000000E+00  6.4664009885599E-03 -4.0096979201644E-02
   116  1.1500000000000E+00  5.7530327744759E-03 -3.2209071103848E-02
   117  1.1600000000000E+00  4.9942328614953E-03 -2.5357081760904E-02
   118  1.1700000000000E+00  4.2191457690381E-03 -1.9488816896459E-02
   119  1.1800000000000E+00  3.4633529201279E-03 -1.4574790822013E-02
   120  1.1900000000000E+00  2.7548513715580E-03 -1.0560277729107E-02
   121  1.2000000000000E+00  2.1151920600018E-03 -7.3730828028833E-03
   122  1.2100000000000E+00  1.5589666604464E-03 -4.9250508704017E-03
   123  1.2200000000000E+00  1.0944270092223E-03 -3.1174413616840E-03
   124  1.2300000000000E+00  7.2338672786037E-04 -1.8454254447159E-03
   125  1.2400000000000E+00  4.3978410163912E-04 -9.9986157171225E-04
   126  1.2500000000000E+00  2.3715524920030E-04 -4.7852377761377E-04
   127  1.2600000000000E+00  1.0609523692387E-04 -1.8964251720572E-04
   128  1.2700000000000E+00  3.3923695682013E-05 -5.4065743805348E-05
   129  1.2800000000000E+00  4.8362116007412E-06 -7.1474345777575E-06
   130  1.2900000000000E+00 -3.4889280916183E-08  4.9599491819327E-08
   131  1.3000000000000E+00  2.7477701748501E-08 -3.7752244389025E-08
   132  1.31 -0.  0.
   133  1.32 -0.  0.
   134  1.33  0.  0.
   135  1.34  0.  0.
   136  1.35  0.  0.
   137  1.36  0.  0.
   138  1.37  0.  0.
   139  1.38  0.  0.
   140  1.39  0.  0.
   141  1.40  0.  0.
   142  1.41  0.  0.
   143  1.42  0.  0.
   144  1.43  0.  0.
   145  1.44  0.  0.
   146  1.45  0.  0.
   147  1.46  0.  0.
   148  1.47  0.  0.
   149  1.48  0.  0.
   150  1.49  0.  0.
   151  1.50  0.  0.
   152  1.51  0.  0.
   153  1.52  0.  0.
   154  1.53  0.  0.
   155  1.54  0.  0.
   156  1.55  0.  0.
   157  1.56  0.  0.
   158  1.57  0.  0.
   159  1.58  0.  0.
   160  1.59  0.  0.
   161  1.60  0.  0.
   162  1.61  0.  0.
   163  1.62  0.  0.
   164  1.63  0.  0.
   165  1.64  0.  0.
   166  1.65  0.  0.
   167  1.66  0.  0.
   168  1.67  0.  0.
   169  1.68  0.  0.
   170  1.69  0.  0.
   171  1.70  0.  0.
   172  1.71  0.  0.
   173  1.72  0.  0.
   174  1.73  0.  0.
   175  1.74  0.  0.
   176  1.75  0.  0.
   177  1.76  0.  0.
   178  1.77  0.  0.
   179  1.78  0.  0.
   180  1.79  0.  0.
   181  1.80  0.  0.
   182  1.81  0.  0.
   183  1.82  0.  0.
   184  1.83  0.  0.
   185  1.84  0.  0.
   186  1.85  0.  0.
   187  1.86  0.  0.
   188  1.87  0.  0.
   189  1.88  0.  0.
   190  1.89  0.  0.
   191  1.90  0.  0.
   192  1.91  0.  0.
   193  1.92  0.  0.
   194  1.93  0.  0.
   195  1.94  0.  0.
   196  1.95  0.  0.
   197  1.96  0.  0.
   198  1.97  0.  0.
   199  1.98  0.  0.
   200  1.99  0.  0.
   201  2.00  0.  0.
   202  2.01  0.  0.
   203  2.02  0.  0.
   204  2.03  0.  0.
   205  2.04  0.  0.
   206  2.05  0.  0.
   207  2.06  0.  0.
   208  2.07  0.  0.
   209  2.08  0.  0.
   210  2.09  0.  0.
   211  2.10  0.  0.
   212  2.11  0.  0.
   213  2.12  0.  0.
   214  2.13  0.  0.
   215  2.14  0.  0.
   216  2.15  0.  0.
   217  2.16  0.  0.
   218  2.17  0.  0.
   219  2.18  0.  0.
   220  2.19  0.  0.
   221  2.20  0.  0.
   222  2.21  0.  0.
   223  2.22  0.  0.
   224  2.23  0.  0.
   225  2.24  0.  0.
   226  2.25  0.  0.
   227  2.26  0.  0.
   228  2.27  0.  0.
   229  2.28  0.  0.
   230  2.29  0.  0.
   231  2.30  0.  0.
   232  2.31  0.  0.
   233  2.32  0.  0.
   234  2.33  0.  0.
   235  2.34  0.  0.
   236  2.35  0.  0.
   237  2.36  0.  0.
   238  2.37  0.  0.
   239  2.38  0.  0.
   240  2.39  0.  0.
   241  2.40  0.  0.
   242  2.41  0.  0.
   243  2.42  0.  0.
   244  2.43  0.  0.
   245  2.44  0.  0.
   246  2.45  0.  0.
   247  2.46  0.  0.
   248  2.47  0.  0.
   249  2.48  0.  0.
   250  2.49  0.  0.
   251  2.50  0.  0.
   252  2.51  0.  0.
   253  2.52  0.  0.
   254  2.53  0.  0.
   255  2.54  0.  0.
   256  2.55  0.  0.
   257  2.56  0.  0.
   258  2.57  0.  0.
   259  2.58  0.  0.
   260  2.59  0.  0.
   261  2.60  0.  0.
   262  2.61  0.  0.
   263  2.62  0.  0.
   264  2.63  0.  0.
   265  2.64  0.  0.
   266  2.65  0.  0.
   267  2.66  0.  0.
   268  2.67  0.  0.
   269  2.68  0.  0.
   270  2.69  0.  0.
   271  2.70  0.  0.
   272  2.71  0.  0.
   273  2.72  0.  0.
   274  2.73  0.  0.
   275  2.74  0.  0.
   276  2.75  0.  0.
   277  2.76  0.  0.
   278  2.77  0.  0.
   279  2.78  0.  0.
   280  2.79  0.  0.
   281  2.80  0.  0.
   282  2.81  0.  0.
   283  2.82  0.  0.
   284  2.83  0.  0.
   285  2.84  0.  0.
   286  2.85  0.  0.
   287  2.86  0.  0.
   288  2.87  0.  0.
   289  2.88  0.  0.
   290  2.89  0.  0.
   291  2.90  0.  0.
   292  2.91  0.  0.
   293  2.92  0.  0.
   294  2.93  0.  0.
   295  2.94  0.  0.
   296  2.95  0.  0.
   297  2.96  0.  0.
   298  2.97  0.  0.
   299  2.98  0.  0.
   300  2.99  0.  0.
   301  3.00  0.  0.
   302  3.01  0.  0.
   303  3.02  0.  0.
   304  3.03  0.  0.
   305  3.04  0.  0.
   306  3.05  0.  0.
   307  3.06  0.  0.
   308  3.07  0.  0.
   309  3.08  0.  0.
   310  3.09  0.  0.
   311  3.10  0.  0.
   312  3.11  0.  0.
   313  3.12  0.  0.
   314  3.13  0.  0.
   315  3.14  0.  0.
   316  3.15  0.  0.
   317  3.16  0.  0.
   318  3.17  0.  0.
   319  3.18  0.  0.
   320  3.19  0.  0.
   321  3.20  0.  0.
   322  3.21  0.  0.
   323  3.22  0.  0.
   324  3.23  0.  0.
   325  3.24  0.  0.
   326  3.25  0.  0.
   327  3.26  0.  0.
   328  3.27  0.  0.
   329  3.28  0.  0.
   330  3.29  0.  0.
   331  3.30  0.  0.
   332  3.31  0.  0.
   333  3.32  0.  0.
   334  3.33  0.  0.
   335  3.34  0.  0.
   336  3.35  0.  0.
   337  3.36  0.  0.
   338  3.37  0.  0.
   339  3.38  0.  0.
   340  3.39  0.  0.
   341  3.40  0.  0.
   342  3.41  0.  0.
   343  3.42  0.  0.
   344  3.43  0.  0.
   345  3.44  0.  0.
   346  3.45  0.  0.
   347  3.46  0.  0.
   348  3.47  0.  0.
   349  3.48  0.  0.
   350  3.49  0.  0.
   351  3.50  0.  0.
   352  3.51  0.  0.
   353  3.52  0.  0.
   354  3.53  0.  0.
   355  3.54  0.  0.
   356  3.55  0.  0.
   357  3.56  0.  0.
   358  3.57  0.  0.
   359  3.58  0.  0.
   360  3.59  0.  0.
   361  3.60  0.  0.
   362  3.61  0.  0.
   363  3.62  0.  0.
   364  3.63  0.  0.
   365  3.64  0.  0.
   366  3.65  0.  0.
   367  3.66  0.  0.
   368  3.67  0.  0.
   369  3.68  0.  0.
   370  3.69  0.  0.
   371  3.70  0.  0.
   372  3.71  0.  0.
   373  3.72  0.  0.
   374  3.73  0.  0.
   375  3.74  0.  0.
   376  3.75  0.  0.
   377  3.76  0.  0.
   378  3.77  0.  0.
   379  3.78  0.  0.
   380  3.79  0.  0.
   381  3.80  0.  0.
   382  3.81  0.  0.
   383  3.82  0.  0.
   384  3.83  0.  0.
   385  3.84  0.  0.
   386  3.85  0.  0.
   387  3.86  0.  0.
   388  3.87  0.  0.
   389  3.88  0.  0.
   390  3.89  0.  0.
   391  3.90  0.  0.
   392  3.91  0.  0.
   393  3.92  0.  0.
   394  3.93  0.  0.
   395  3.94  0.  0.
   396  3.95  0.  0.
   397  3.96  0.  0.
   398  3.97  0.  0.
   399  3.98  0.  0.
   400  3.99  0.  0.
   401  4.00  0.  0.
   402  4.01  0.  0.
   403  4.02  0.  0.
   404  4.03  0.  0.
   405  4.04  0.  0.
   406  4.05  0.  0.
   407  4.06  0.  0.
   408  4.07  0.  0.
   409  4.08  0.  0.
   410  4.09  0.  0.
   411  4.10  0.  0.
   412  4.11  0.  0.
   413  4.12  0.  0.
   414  4.13  0.  0.
   415  4.14  0.  0.
   416  4.15  0.  0.
   417  4.16  0.  0.
   418  4.17  0.  0.
   419  4.18  0.  0.
   420  4.19  0.  0.
   421  4.20  0.  0.
   422  4.21  0.  0.
   423  4.22  0.  0.
   424  4.23  0.  0.
   425  4.24  0.  0.
   426  4.25  0.  0.
   427  4.26  0.  0.
   428  4.27  0.  0.
   429  4.28  0.  0.
   430  4.29  0.  0.
   431  4.30  0.  0.
   432  4.31  0.  0.
   433  4.32  0.  0.
   434  4.33  0.  0.
   435  4.34  0.  0.
   436  4.35  0.  0.
   437  4.36  0.  0.
   438  4.37  0.  0.
   439  4.38  0.  0.
   440  4.39  0.  0.
   441  4.40  0.  0.
   442  4.41  0.  0.
   443  4.42  0.  0.
   444  4.43  0.  0.
   445  4.44  0.  0.
   446  4.45  0.  0.
   447  4.46  0.  0.
   448  4.47  0.  0.
   449  4.48  0.  0.
   450  4.49  0.  0.
   451  4.50  0.  0.
   452  4.51  0.  0.
   453  4.52  0.  0.
   454  4.53  0.  0.
   455  4.54  0.  0.
   456  4.55  0.  0.
   457  4.56  0.  0.
   458  4.57  0.  0.
   459  4.58  0.  0.
   460  4.59  0.  0.
   461  4.60  0.  0.
   462  4.61  0.  0.
   463  4.62  0.  0.
   464  4.63  0.  0.
   465  4.64  0.  0.
   466  4.65  0.  0.
   467  4.66  0.  0.
   468  4.67  0.  0.
   469  4.68  0.  0.
   470  4.69  0.  0.
   471  4.70  0.  0.
   472  4.71  0.  0.
   473  4.72  0.  0.
   474  4.73  0.  0.
   475  4.74  0.  0.
   476  4.75  0.  0.
   477  4.76  0.  0.
   478  4.77  0.  0.
   479  4.78  0.  0.
   480  4.79  0.  0.
   481  4.80  0.  0.
   482  4.81  0.  0.
   483  4.82  0.  0.
   484  4.83  0.  0.
   485  4.84  0.  0.
   486  4.85  0.  0.
   487  4.86  0.  0.
   488  4.87  0.  0.
   489  4.88  0.  0.
   490  4.89  0.  0.
   491  4.90  0.  0.
   492  4.91  0.  0.
   493  4.92  0.  0.
   494  4.93  0.  0.
   495  4.94  0.  0.
   496  4.95  0.  0.
   497  4.96  0.  0.
   498  4.97  0.  0.
   499  4.98  0.  0.
   500  4.99  0.  0.
   501  5.00  0.  0.
   502  5.01  0.  0.
   503  5.02  0.  0.
   504  5.03  0.  0.
   505  5.04  0.  0.
   506  5.05  0.  0.
   507  5.06  0.  0.
   508  5.07  0.  0.
   509  5.08  0.  0.
   510  5.09  0.  0.
   511  5.10  0.  0.
   512  5.11  0.  0.
   513  5.12  0.  0.
   514  5.13  0.  0.
   515  5.14  0.  0.
   516  5.15  0.  0.
   517  5.16  0.  0.
   518  5.17  0.  0.
   519  5.18  0.  0.
   520  5.19  0.  0.
   521  5.20  0.  0.
   522  5.21  0.  0.
   523  5.22  0.  0.
   524  5.23  0.  0.
   525  5.24  0.  0.
   526  5.25  0.  0.
   527  5.26  0.  0.
   528  5.27  0.  0.
   529  5.28  0.  0.
   530  5.29  0.  0.
   531  5.30  0.  0.
   532  5.31  0.  0.
   533  5.32  0.  0.
   534  5.33  0.  0.
   535  5.34  0.  0.
   536  5.35  0.  0.
   537  5.36  0.  0.
   538  5.37  0.  0.
   539  5.38  0.  0.
   540  5.39  0.  0.
   541  5.40  0.  0.
   542  5.41  0.  0.
   543  5.42  0.  0.
   544  5.43  0.  0.
   545  5.44  0.  0.
   546  5.45  0.  0.
   547  5.46  0.  0.
   548  5.47  0.  0.
   549  5.48  0.  0.
   550  5.49  0.  0.
   551  5.50  0.  0.
   552  5.51  0.  0.
   553  5.52  0.  0.
   554  5.53  0.  0.
   555  5.54  0.  0.
   556  5.55  0.  0.
   557  5.56  0.  0.
   558  5.57  0.  0.
   559  5.58  0.  0.
   560  5.59  0.  0.
   561  5.60  0.  0.
   562  5.61  0.  0.
   563  5.62  0.  0.
   564  5.63  0.  0.
   565  5.64  0.  0.
   566  5.65  0.  0.
   567  5.66  0.  0.
   568  5.67  0.  0.
   569  5.68  0.  0.
   570  5.69  0.  0.
   571  5.70  0.  0.
   572  5.71  0.  0.
   573  5.72  0.  0.
   574  5.73  0.  0.
   575  5.74  0.  0.
   576  5.75  0.  0.
   577  5.76  0.  0.
   578  5.77  0.  0.
   579  5.78  0.  0.
   580  5.79  0.  0.
   581  5.80  0.  0.
   582  5.81  0.  0.
   583  5.82  0.  0.
   584  5.83  0.  0.
   585  5.84  0.  0.
   586  5.85  0.  0.
   587  5.86  0.  0.
   588  5.87  0.  0.
   589  5.88  0.  0.
   590  5.89  0.  0.
   591  5.90  0.  0.
   592  5.91  0.  0.
   593  5.92  0.  0.
   594  5.93  0.  0.
   595  5.94  0.  0.
   596  5.95  0.  0.
   597  5.96  0.  0.
   598  5.97  0.  0.
   599  5.98  0.  0.
   600  5.99  0.  0.
   1                        -3.7137540369575E+00 -1.1101790140645E+00
     1  0.0000000000000E+00  1.6164196980917E-08 -2.2125405278739E-08
     2  1.0000000000000E-02  2.3357722927707E-03 -1.0746874579110E-03
     3  2.0000000000000E-02  9.3201841246722E-03 -4.2735104995178E-03
     4  3.0000000000000E-02  2.0884946708208E-02 -9.5213203410795E-03
     5  4.0000000000000E-02  3.6917656726138E-02 -1.6694752878364E-02
     6  5.0000000000000E-02  5.7263879097964E-02 -2.5625007531425E-02
     7  6.0000000000000E-02  8.1729995210186E-02 -3.6101644834687E-02
     8  7.0000000000000E-02  1.1008675083936E-01 -4.7877312576795E-02
     9  8.0000000000000E-02  1.4207342183280E-01 -6.0673288169312E-02
    10  9.0000000000000E-02  1.7740250133786E-01 -7.4185705418425E-02
    11  1.0000000000000E-01  2.1576480032026E-01 -8.8092317450224E-02
    12  1.1000000000000E-01  2.5683484356791E-01 -1.0205963458717E-01
    13  1.2000000000000E-01  3.0027643656711E-01 -1.1575026680480E-01
    14  1.3000000000000E-01  3.4574827473025E-01 -1.2883029524032E-01
    15  1.4000000000000E-01  3.9290946554764E-01 -1.4097649621285E-01
    16  1.5000000000000E-01  4.4142483636879E-01 -1.5188324439386E-01
    17  1.6000000000000E-01  4.9096990565104E-01 -1.6126892907631E-01
    18  1.7000000000000E-01  5.4123540354838E-01 -1.6888172878926E-01
    19  1.8000000000000E-01  5.9193123847740E-01 -1.7450460454350E-01
    20  1.9000000000000E-01  6.4278981956143E-01 -1.7795939044937E-01
    21  2.0000000000000E-01  6.9356866032668E-01 -1.7910988190717E-01
    22  2.1000000000000E-01  7.4405220636370E-01 -1.7786384555489E-01
    23  2.2000000000000E-01  7.9405284848624E-01 -1.7417390112225E-01
    24  2.3000000000000E-01  8.4341110279429E-01 -1.6803725269388E-01
    25  2.4000000000000E-01  8.9199495952641E-01 -1.5949427499626E-01
    26  2.5000000000000E-01  9.3969842319987E-01 -1.4862598854167E-01
    27  2.6000000000000E-01  9.8643928680927E-01 -1.3555048512702E-01
    28  2.7000000000000E-01  1.0321562023104E+00 -1.2041839164110E-01
    29  2.8000000000000E-01  1.0768051277989E+00 -1.0340748474809E-01
    30  2.9000000000000E-01  1.1203552482638E+00 -8.4716591190747E-02
    31  3.0000000000000E-01  1.1627844811573E+00 -6.4558927646768E-02
    32  3.1000000000000E-01  1.2040746899118E+00 -4.3155049791252E-02
    33  3.2000000000000E-01  1.2442067376503E+00 -2.0725592057571E-02
    34  3.3000000000000E-01  1.2831555194290E+00  2.5160127773985E-03
    35  3.4000000000000E-01  1.3208851142416E+00  2.6370641862183E-02
    36  3.5000000000000E-01  1.3573441975897E+00  5.0660227447586E-02
    37  3.6000000000000E-01  1.3924618516514E+00  7.5233954001372E-02
    38  3.7000000000000E-01  1.4261439029940E+00  9.9973732790217E-02
    39  3.8000000000000E-01  1.4582699074936E+00  1.2479879430113E-01
    40  3.9000000000000E-01  1.4886908888342E+00  1.4966925777503E-01
    41  4.0000000000000E-01  1.5172279209163E+00  1.7458855970368E-01
    42  4.1000000000000E-01  1.5436716260399E+00  1.9960464892474E-01
    43  4.2000000000000E-01  1.5677826402182E+00  2.2480988438757E-01
    44  4.3000000000000E-01  1.5892930748669E+00  2.5033960213360E-01
    45  4.4000000000000E-01  1.6079089808766E+00  2.7636934986260E-01
    46  4.5000000000000E-01  1.6233137972172E+00  3.0311081992277E-01
    47  4.6000000000000E-01  1.6351727422885E+00  3.3080654392565E-01
    48  4.7000000000000E-01  1.6431380827474E+00  3.5972344369313E-01
    49  4.8000000000000E-01  1.6468551920572E+00  3.9014536315224E-01
    50  4.9000000000000E-01  1.6459692900417E+00  4.2236473338485E-01
    51  5.0000000000000E-01  1.6401327357841E+00  4.5667354763718E-01
    52  5.1000000000000E-01  1.6290127297423E+00  4.9335384408391E-01
    53  5.2000000000000E-01  1.6122992673828E+00  5.3266791097661E-01
    54  5.3000000000000E-01  1.5897131763032E+00  5.7484844103022E-01
    55  5.4000000000000E-01  1.5610140620074E+00  6.2008886915704E-01
    56  5.5000000000000E-01  1.5260079844369E+00  6.6853412969154E-01
    57  5.6000000000000E-01  1.4845546881585E+00  7.2027206593043E-01
    58  5.7000000000000E-01  1.4365742138230E+00  7.7532571612272E-01
    59  5.8000000000000E-01  1.3820527270919E+00  8.3364668609376E-01
    60  5.9000000000000E-01  1.3210474135482E+00  8.9510979970477E-01
    61  6.0000000000000E-01  1.2536903039588E+00  9.5950919468252E-01
    62  6.1000000000000E-01  1.1801909133316E+00  1.0265560034627E+00
    63  6.2000000000000E-01  1.1008375991474E+00  1.0958777271383E+00
    64  6.3000000000000E-01  1.0159975685056E+00  1.1670193760438E+00
    65  6.4000000000000E-01  9.2611549019389E-01  1.2394464136751E+00
    66  6.5000000000000E-01  8.3171069534182E-01  1.3125495023280E+00
    67  6.6000000000000E-01  7.3337297875048E-01  1.3856510098881E+00
    68  6.7000000000000E-01  6.3175704159735E-01  1.4580131984787E+00
    69  6.8000000000000E-01  5.2757564438121E-01  1.5288479780457E+00
    70  6.9000000000000E-01  4.2159156606997E-01  1.5973280722925E+00
    71  7.0000000000000E-01  3.1460849085209E-01  1.6625994115012E+00
    72  7.1000000000000E-01  2.0746096708986E-01  1.7237945374595E+00
    73  7.2000000000000E-01  1.0100360351087E-01  1.7800467806668E+00
    74  7.3000000000000E-01 -3.9003151267983E-03  1.8305049498329E+00
    75  7.4000000000000E-01 -1.0639059709836E-01  1.8743482589223E+00
    76  7.5000000000000E-01 -2.0562209211716E-01  1.9108012080403E+00
    77  7.6000000000000E-01 -3.0077660831275E-01  1.9391481315709E+00
    78  7.7000000000000E-01 -3.9107458600074E-01  1.9587471303100E+00
    79  7.8000000000000E-01 -4.7578631987250E-01  1.9690431138820E+00
    80  7.9000000000000E-01 -5.5424252902579E-01  1.9695796953529E+00
    81  8.0000000000000E-01 -6.2584408629936E-01  1.9600097013825E+00
    82  8.1000000000000E-01 -6.9007073443271E-01  1.9401040880750E+00
    83  8.2000000000000E-01 -7.4648863632896E-01  1.9097590843668E+00
    84  8.3000000000000E-01 -7.9475662974758E-01  1.8690014206797E+00
    85  8.4000000000000E-01 -8.3463108261867E-01  1.8179915399142E+00
    86  8.5000000000000E-01 -8.6596927330730E-01  1.7570247298371E+00
    87  8.6000000000000E-01 -8.8873124997146E-01  1.6865301596253E+00
    88  8.7000000000000E-01 -9.0298015401567E-01  1.6070678478201E+00
    89  8.8000000000000E-01 -9.0888102388526E-01  1.5193236332561E+00
    90  8.9000000000000E-01 -9.0669812646607E-01  1.4241022638984E+00
    91  9.0000000000000E-01 -8.9679089236020E-01  1.3223187559686E+00
    92  9.1000000000000E-01 -8.7960829044662E-01  1.2149872386556E+00
    93  9.2000000000000E-01 -8.5567861165350E-01  1.1031966013121E+00
    94  9.3000000000000E-01 -8.2559680840416E-01  9.8808229072679E-01
    95  9.4000000000000E-01 -7.9001374785712E-01  8.7080878879679E-01
    96  9.5000000000000E-01 -7.4962512374972E-01  7.5255291778984E-01
    97  9.6000000000000E-01 -7.0515987575633E-01  6.3448690904669E-01
    98  9.7000000000000E-01 -6.5736832667757E-01  5.1776154164855E-01
    99  9.8000000000000E-01 -6.0701025269247E-01  4.0348966325578E-01
   100  9.9000000000000E-01 -5.5484310065671E-01  2.9273039714447E-01
   101  1.0000000000000E+00 -5.0161056115160E-01  1.8647432606154E-01
   102  1.0100000000000E+00 -4.4803169655456E-01  8.5629924130215E-02
   103  1.0200000000000E+00 -3.9479081002954E-01 -8.9885169361530E-03
   104  1.0300000000000E+00 -3.4252822431661E-01 -9.6671251103108E-02
   105  1.0400000000000E+00 -2.9183211893831E-01 -1.7682154900854E-01
   106  1.0500000000000E+00 -2.4323155136379E-01 -2.4896213307910E-01
   107  1.0600000000000E+00 -1.9719076226663E-01 -3.1273947424781E-01
   108  1.0700000000000E+00 -1.5410483791098E-01 -3.6792589075968E-01
   109  1.0800000000000E+00 -1.1429677436370E-01 -4.1441943377223E-01
   110  1.0900000000000E+00 -7.8015959393405E-02 -4.5224158875063E-01
   111  1.1000000000000E+00 -4.5438059130805E-02 -4.8153286519262E-01
   112  1.1100000000000E+00 -1.6666268410432E-02 -5.0254638910717E-01
   113  1.1200000000000E+00  8.2661430748182E-03 -5.1563965183123E-01
   114  1.1300000000000E+00  2.9392060868143E-02 -5.2126455571922E-01
   115  1.1400000000000E+00  4.6801052339317E-02 -5.1994518580891E-01
   116  1.1500000000000E+00  6.0708984415275E-02 -5.1244216796983E-01
   117  1.1600000000000E+00  7.1235604493097E-02 -4.9923086088841E-01
   118  1.1700000000000E+00  7.8637812508521E-02 -4.8105612083714E-01
   119  1.1800000000000E+00  8.3191209408621E-02 -4.5865505658764E-01
   120  1.1900000000000E+00  8.5197321126208E-02 -4.3277861759828E-01
   121  1.2000000000000E+00  8.4974710884800E-02 -4.0417544760192E-01
   122  1.2100000000000E+00  8.2852045209923E-02 -3.7358070844687E-01
   123  1.2200000000000E+00  7.9160307049275E-02 -3.4170310591394E-01
   124  1.2300000000000E+00  7.4225476715341E-02 -3.0921310122923E-01
   125  1.2400000000000E+00  6.8361773583554E-02 -2.7673239964287E-01
   126  1.2500000000000E+00  6.1865589732844E-02 -2.4482490635064E-01
   127  1.2600000000000E+00  5.5010227275187E-02 -2.1398930516555E-01
   128  1.2700000000000E+00  4.8041529416935E-02 -1.8465337728163E-01
   129  1.2800000000000E+00  4.1174472054897E-02 -1.5717013741329E-01
   130  1.2900000000000E+00  3.4590758238821E-02 -1.3181582301288E-01
   131  1.3000000000000E+00  2.8437432804835E-02 -1.0878973027400E-01
   132  1.3100000000000E+00  2.2826509570358E-02 -8.8215849289657E-02
   133  1.3200000000000E+00  1.7835579130521E-02 -7.0146210758051E-02
   134  1.3300000000000E+00  1.3509342049770E-02 -5.4565818875040E-02
   135  1.3400000000000E+00  9.8619907895478E-03 -4.1399010611440E-02
   136  1.3500000000000E+00  6.8803444279331E-03 -3.0517051013330E-02
   137  1.3600000000000E+00  4.5276234652452E-03 -2.1746748042595E-02
   138  1.3700000000000E+00  2.7477361927800E-03 -1.4879846846700E-02
   139  1.3800000000000E+00  1.4699684281167E-03 -9.6829883502634E-03
   140  1.3900000000000E+00  6.1378997349837E-04 -5.9077839372326E-03
   141  1.4000000000000E+00  9.5025950097405E-05 -3.3025647193945E-03
   142  1.4100000000000E+00 -1.6031192472326E-04 -1.6340819013830E-03
   143  1.4200000000000E+00 -2.3317392694994E-04 -6.6823292970988E-04
   144  1.4300000000000E+00 -2.0079409236654E-04 -1.8683610041899E-04
   145  1.4400000000000E+00 -1.2611822583814E-04 -4.0580424501004E-06
   146  1.4500000000000E+00 -5.4635213028349E-05  2.7259640315580E-05
   147  1.4600000000000E+00 -1.1562144780229E-05  1.0152544921943E-05
   148  1.4700000000000E+00 -5.9159180854200E-08  8.6618710830001E-08
   149  1.4800000000000E+00 -2.4734585449181E-08  3.1552906034308E-08
   150  1.4900000000000E+00  1.2728752174219E-08 -1.2350194020312E-08
   151  1.50 -0.  0.