:MDSTEP: 10
:R(Bohr):
  9.9412281316E-02   7.0992788901E-01   5.0872323499E-01
  1.9182672505E-01   3.3873786925E+00   3.7433635085E+00
  3.7227504309E+00   6.0599140147E+00   3.3612615499E+00
  3.2944637946E+00   3.4851884993E+00   2.2942525701E-01
  3.6653569119E+00   3.3399363163E+00   3.3995338279E+00
  3.2866377764E+00   5.2895315170E-01   5.7292777986E-01
  2.2961572425E-01   3.1041165787E+00   6.1362694652E+00
  3.8633620515E-02   4.4496425085E-01   3.1568742684E+00
:V(Bohr/atu):
  2.6411103580E-04   2.9722669260E-03   2.2953444864E-03
  1.6872177582E-03  -2.1289879137E-04   1.7303627736E-03
  1.7346974835E-03  -1.2294940812E-03  -8.3758221089E-04
 -3.0592892226E-03  -3.9258508035E-04  -2.4846045812E-03
 -3.6584515772E-04   7.9047561695E-04   1.3950393675E-03
 -1.0607069511E-03  -5.2590458970E-05  -1.5756698071E-04
  1.2400761943E-03  -5.8877653671E-04  -1.4167764687E-03
 -4.2500273540E-05  -5.6461316459E-04  -7.7724657185E-05
:TEL(K): 12000
:TIO(K): 12000
