:MDSTEP: 10
:R(Bohr):
  9.9409362661E-02   7.0991840627E-01   5.0869593273E-01
  1.9181742468E-01   3.3874071998E+00   3.7433374224E+00
  3.7227200798E+00   6.0599588057E+00   3.3612728911E+00
  3.2944814686E+00   3.4852174536E+00   2.2944398413E-01
  3.6653531994E+00   3.3399943960E+00   3.3995492735E+00
  3.2866522100E+00   5.2896247898E-01   5.7299734037E-01
  2.2965021812E-01   3.1040923582E+00   6.1362724485E+00
  3.8597501363E-02   4.4488717118E-01   3.1567947989E+00
:V(Bohr/atu):
  2.6451671496E-04   2.9721790286E-03   2.2950906839E-03
  1.6875696814E-03  -2.1267008683E-04   1.7302058135E-03
  1.7348421884E-03  -1.2290620192E-03  -8.3741825318E-04
 -3.0587121635E-03  -3.9232882048E-04  -2.4844222491E-03
 -3.6573140259E-04   7.9083931190E-04   1.3950906129E-03
 -1.0607199167E-03  -5.2356088488E-05  -1.5654278321E-04
  1.2402983222E-03  -5.8873763388E-04  -1.4168569603E-03
 -4.3363672323E-05  -5.6555305225E-04  -7.8696053628E-05
:TEL(K): 12000
:TIO(K): 12000
