Si    ONCVPSP-3.3.1  r_core=   2.29275   3.56481
     14.0000      4.0000      180913    zatom,zion,pspd
     8       2   1     4   600     0    pspcod,pspxc,lmax,lloc,mmax,r2well
  5.99000000  0.00000000  0.00000000    rchrg fchrg qchrg
     2     2     0     0     0    nproj
     1     1           extension_switch
   0                         5.0237207847988E+00  3.7427701812917E-01
     1  0.0000000000000E+00  2.9456992400867E-13 -4.4412806765592E-12
     2  1.0000000000000E-02  2.9609322907980E-02 -1.9314684904104E-02
     3  2.0000000000000E-02  5.9205263038517E-02 -3.8607377407385E-02
     4  3.0000000000000E-02  8.8774428110458E-02 -5.7856062570533E-02
     5  4.0000000000000E-02  1.1830340688711E-01 -7.7038680625911E-02
     6  5.0000000000000E-02  1.4777875982806E-01 -9.6133105183895E-02
     7  6.0000000000000E-02  1.7718700989638E-01 -1.1511712218068E-01
     8  7.0000000000000E-02  2.0651463357255E-01 -1.3396840980953E-01
     9  8.0000000000000E-02  2.3574805212630E-01 -1.5266451967291E-01
    10  9.0000000000000E-02  2.6487362319713E-01 -1.7118285938766E-01
    11  1.0000000000000E-01  2.9387763273390E-01 -1.8950067686844E-01
    12  1.1000000000000E-01  3.2274628734326E-01 -2.0759504650753E-01
    13  1.2000000000000E-01  3.5146570709624E-01 -2.2544285746005E-01
    14  1.3000000000000E-01  3.8002191884174E-01 -2.4302080423438E-01
    15  1.4000000000000E-01  4.0840085007471E-01 -2.6030537977714E-01
    16  1.5000000000000E-01  4.3658832340641E-01 -2.7727287123031E-01
    17  1.6000000000000E-01  4.6457005168306E-01 -2.9389935852639E-01
    18  1.7000000000000E-01  4.9233163379845E-01 -3.1016071597420E-01
    19  1.8000000000000E-01  5.1985855124512E-01 -3.2603261697414E-01
    20  1.9000000000000E-01  5.4713616544781E-01 -3.4149054198733E-01
    21  2.0000000000000E-01  5.7414971592163E-01 -3.5650978986825E-01
    22  2.1000000000000E-01  6.0088431929662E-01 -3.7106549265427E-01
    23  2.2000000000000E-01  6.2732496924897E-01 -3.8513263388968E-01
    24  2.3000000000000E-01  6.5345653737793E-01 -3.9868607054506E-01
    25  2.4000000000000E-01  6.7926377506648E-01 -4.1170055857568E-01
    26  2.5000000000000E-01  7.0473131636192E-01 -4.2415078214531E-01
    27  2.6000000000000E-01  7.2984368191165E-01 -4.3601138652364E-01
    28  2.7000000000000E-01  7.5458528398752E-01 -4.4725701464853E-01
    29  2.8000000000000E-01  7.7894043263067E-01 -4.5786234732500E-01
    30  2.9000000000000E-01  8.0289334294693E-01 -4.6780214701538E-01
    31  3.0000000000000E-01  8.2642814358129E-01 -4.7705130515670E-01
    32  3.1000000000000E-01  8.4952888639759E-01 -4.8558489292275E-01
    33  3.2000000000000E-01  8.7217955738780E-01 -4.9337821533054E-01
    34  3.3000000000000E-01  8.9436408883305E-01 -5.0040686857224E-01
    35  3.4000000000000E-01  9.1606637273577E-01 -5.0664680043642E-01
    36  3.5000000000000E-01  9.3727027554039E-01 -5.1207437366421E-01
    37  3.6000000000000E-01  9.5795965415662E-01 -5.1666643206911E-01
    38  3.7000000000000E-01  9.7811837329691E-01 -5.2040036923180E-01
    39  3.8000000000000E-01  9.9773032413621E-01 -5.2325419956500E-01
    40  3.9000000000000E-01  1.0167794442990E+00 -5.2520663152735E-01
    41  4.0000000000000E-01  1.0352497391747E+00 -5.2623714274923E-01
    42  4.1000000000000E-01  1.0531253045588E+00 -5.2632605681913E-01
    43  4.2000000000000E-01  1.0703903506135E+00 -5.2545462146410E-01
    44  4.3000000000000E-01  1.0870292271358E+00 -5.2360508784434E-01
    45  4.4000000000000E-01  1.1030264501179E+00 -5.2076079066907E-01
    46  4.5000000000000E-01  1.1183667295792E+00 -5.1690622882822E-01
    47  4.6000000000000E-01  1.1330349986436E+00 -5.1202714622324E-01
    48  4.7000000000000E-01  1.1470164438308E+00 -5.0611061246978E-01
    49  4.8000000000000E-01  1.1602965365245E+00 -4.9914510313469E-01
    50  4.9000000000000E-01  1.1728610655738E+00 -4.9112057916218E-01
    51  5.0000000000000E-01  1.1846961709781E+00 -4.8202856513463E-01
    52  5.1000000000000E-01  1.1957883786002E+00 -4.7186222600834E-01
    53  5.2000000000000E-01  1.2061246358427E+00 -4.6061644195752E-01
    54  5.3000000000000E-01  1.2156923482196E+00 -4.4828788095650E-01
    55  5.4000000000000E-01  1.2244794167430E+00 -4.3487506872565E-01
    56  5.5000000000000E-01  1.2324742760429E+00 -4.2037845566500E-01
    57  5.6000000000000E-01  1.2396659331251E+00 -4.0480048039862E-01
    58  5.7000000000000E-01  1.2460440066680E+00 -3.8814562955288E-01
    59  5.8000000000000E-01  1.2515987667499E+00 -3.7042049339407E-01
    60  5.9000000000000E-01  1.2563211748909E+00 -3.5163381695296E-01
    61  6.0000000000000E-01  1.2602029242850E+00 -3.3179654626998E-01
    62  6.1000000000000E-01  1.2632364800918E+00 -3.1092186939895E-01
    63  6.2000000000000E-01  1.2654151196472E+00 -2.8902525181674E-01
    64  6.3000000000000E-01  1.2667329724467E+00 -2.6612446589348E-01
    65  6.4000000000000E-01  1.2671850597475E+00 -2.4223961409048E-01
    66  6.5000000000000E-01  1.2667673336274E+00 -2.1739314556364E-01
    67  6.6000000000000E-01  1.2654767153331E+00 -1.9160986586552E-01
    68  6.7000000000000E-01  1.2633111327431E+00 -1.6491693945421E-01
    69  6.8000000000000E-01  1.2602695567664E+00 -1.3734388473449E-01
    70  6.9000000000000E-01  1.2563520364899E+00 -1.0892256137635E-01
    71  7.0000000000000E-01  1.2515597328867E+00 -7.9687149676623E-02
    72  7.1000000000000E-01  1.2458949508901E+00 -4.9674121751967E-02
    73  7.2000000000000E-01  1.2393611696368E+00 -1.8922204376530E-02
    74  7.3000000000000E-01  1.2319630706811E+00  1.2527666697092E-02
    75  7.4000000000000E-01  1.2237065639774E+00  4.4632401065621E-02
    76  7.5000000000000E-01  1.2145988114322E+00  7.7346816755213E-02
    77  7.6000000000000E-01  1.2046482478234E+00  1.1062371212420E-01
    78  7.7000000000000E-01  1.1938645988893E+00  1.4441394662749E-01
    79  7.8000000000000E-01  1.1822588963911E+00  1.7866653044439E-01
    80  7.9000000000000E-01  1.1698434899560E+00  2.1332872293611E-01
    81  8.0000000000000E-01  1.1566320555160E+00  2.4834613986083E-01
    82  8.1000000000000E-01  1.1426396001612E+00  2.8366286923318E-01
    83  8.2000000000000E-01  1.1278824632356E+00  3.1922159567457E-01
    84  8.3000000000000E-01  1.1123783135131E+00  3.5496373305725E-01
    85  8.4000000000000E-01  1.0961461423005E+00  3.9082956520043E-01
    86  8.5000000000000E-01  1.0792062523283E+00  4.2675839433177E-01
    87  8.6000000000000E-01  1.0615802423020E+00  4.6268869698025E-01
    88  8.7000000000000E-01  1.0432909870015E+00  4.9855828691874E-01
    89  8.8000000000000E-01  1.0243626128331E+00  5.3430448472575E-01
    90  8.9000000000000E-01  1.0048204687561E+00  5.6986429348647E-01
    91  9.0000000000000E-01  9.8469109252368E-01  6.0517458010275E-01
    92  9.1000000000000E-01  9.6400217219878E-01  6.4017226163065E-01
    93  9.2000000000000E-01  9.4278250292743E-01  6.7479449601416E-01
    94  9.3000000000000E-01  9.2106193897315E-01  7.0897887653099E-01
    95  9.4000000000000E-01  8.9887134104082E-01  7.4266362921627E-01
    96  9.5000000000000E-01  8.7624251894222E-01  7.7578781247843E-01
    97  9.6000000000000E-01  8.5320816968147E-01  8.0829151807065E-01
    98  9.7000000000000E-01  8.2980181106440E-01  8.4011607253253E-01
    99  9.8000000000000E-01  8.0605771096372E-01  8.7120423816453E-01
   100  9.9000000000000E-01  7.8201081239827E-01  9.0150041255344E-01
   101  1.0000000000000E+00  7.5769665461381E-01  9.3095082561662E-01
   102  1.0100000000000E+00  7.3315129038076E-01  9.5950373308887E-01
   103  1.0200000000000E+00  7.0841119975297E-01  9.8710960533151E-01
   104  1.0300000000000E+00  6.8351320056019E-01  1.0137213103013E+00
   105  1.0400000000000E+00  6.5849435593583E-01  1.0392942894764E+00
   106  1.0500000000000E+00  6.3339187920966E-01  1.0637867254987E+00
   107  1.0600000000000E+00  6.0824303652242E-01  1.0871597002596E+00
   108  1.0700000000000E+00  5.8308504754833E-01  1.1093773421175E+00
   109  1.0800000000000E+00  5.5795498473637E-01  1.1304069609128E+00
   110  1.0900000000000E+00  5.3288967150847E-01  1.1502191694147E+00
   111  1.1000000000000E+00  5.0792557987608E-01  1.1687879898138E+00
   112  1.1100000000000E+00  4.8309872796047E-01  1.1860909438532E+00
   113  1.1200000000000E+00  4.5844457792554E-01  1.2021091251753E+00
   114  1.1300000000000E+00  4.3399793485117E-01  1.2168272524480E+00
   115  1.1400000000000E+00  4.0979284709496E-01  1.2302337018286E+00
   116  1.1500000000000E+00  3.8586250870558E-01  1.2423205173151E+00
   117  1.1600000000000E+00  3.6223916446982E-01  1.2530833975368E+00
   118  1.1700000000000E+00  3.3895401818595E-01  1.2625216575398E+00
   119  1.1800000000000E+00  3.1603714476732E-01  1.2706381641302E+00
   120  1.1900000000000E+00  2.9351740678977E-01  1.2774392433487E+00
   121  1.2000000000000E+00  2.7142237610354E-01  1.2829345586698E+00
   122  1.2100000000000E+00  2.4977826113253E-01  1.2871369585425E+00
   123  1.2200000000000E+00  2.2860984048700E-01  1.2900622919003E+00
   124  1.2300000000000E+00  2.0794040351530E-01  1.2917291903149E+00
   125  1.2400000000000E+00  1.8779169841354E-01  1.2921588154979E+00
   126  1.2500000000000E+00  1.6818388851028E-01  1.2913745708802E+00
   127  1.2600000000000E+00  1.4913551733352E-01  1.2894017760481E+00
   128  1.2700000000000E+00  1.3066348305087E-01  1.2862673028773E+00
   129  1.2800000000000E+00  1.1278302286744E-01  1.2819991722216E+00
   130  1.2900000000000E+00  9.5507707949236E-02  1.2766261100823E+00
   131  1.3000000000000E+00  7.8849449326617E-02  1.2701770591056E+00
   132  1.3100000000000E+00  6.2818515837895E-02  1.2626806612952E+00
   133  1.3200000000000E+00  4.7423563093628E-02  1.2541646629954E+00
   134  1.3300000000000E+00  3.2671678931651E-02  1.2446554503385E+00
   135  1.3400000000000E+00  1.8568426421259E-02  1.2341768514257E+00
   136  1.3500000000000E+00  5.1179373884328E-03  1.2227504561243E+00
   137  1.3600000000000E+00 -7.6769529725810E-03  1.2103969964128E+00
   138  1.3700000000000E+00 -1.9814639929683E-02  1.1971380998989E+00
   139  1.3800000000000E+00 -3.1294710446306E-02  1.1829974650309E+00
   140  1.3900000000000E+00 -4.2117971786958E-02  1.1680003413074E+00
   141  1.4000000000000E+00 -5.2286452663781E-02  1.1521735922696E+00
   142  1.4100000000000E+00 -6.1803402675805E-02  1.1355456659250E+00
   143  1.4200000000000E+00 -7.0673288668761E-02  1.1181465632538E+00
   144  1.4300000000000E+00 -7.8901787395311E-02  1.1000077874693E+00
   145  1.4400000000000E+00 -8.6495773937025E-02  1.0811622896390E+00
   146  1.4500000000000E+00 -9.3463305939388E-02  1.0616444069911E+00
   147  1.4600000000000E+00 -9.9813603681265E-02  1.0414897941995E+00
   148  1.4700000000000E+00 -1.0555702585750E-01  1.0207353477130E+00
   149  1.4800000000000E+00 -1.1070504118378E-01  9.9941912357438E-01
   150  1.4900000000000E+00 -1.1527019578466E-01  9.7758024892446E-01
   151  1.5000000000000E+00 -1.1926607646043E-01  9.5525882761792E-01
   152  1.5100000000000E+00 -1.2270726993979E-01  9.3249584035059E-01
   153  1.5200000000000E+00 -1.2560931817374E-01  9.0933303966781E-01
   154  1.5300000000000E+00 -1.2798866992001E-01  8.8581284041457E-01
   155  1.5400000000000E+00 -1.2986262865176E-01  8.6197820598608E-01
   156  1.5500000000000E+00 -1.3124929712567E-01  8.3787253101123E-01
   157  1.5600000000000E+00 -1.3216751869554E-01  8.1353952088447E-01
   158  1.5700000000000E+00 -1.3263681570881E-01  7.8902306876860E-01
   159  1.5800000000000E+00 -1.3267732516798E-01  7.6436713056392E-01
   160  1.5900000000000E+00 -1.3230973197383E-01  7.3961559844417E-01
   161  1.6000000000000E+00 -1.3155520001793E-01  7.1481217350328E-01
   162  1.6100000000000E+00 -1.3043530142767E-01  6.9000023810726E-01
   163  1.6200000000000E+00 -1.2897194429140E-01  6.6522272850347E-01
   164  1.6300000000000E+00 -1.2718729916664E-01  6.4052200829426E-01
   165  1.6400000000000E+00 -1.2510372472956E-01  6.1593974329653E-01
   166  1.6500000000000E+00 -1.2274369288353E-01  5.9151677842344E-01
   167  1.6600000000000E+00 -1.2012971368542E-01  5.6729301704431E-01
   168  1.6700000000000E+00 -1.1728426043594E-01  5.4330730350027E-01
   169  1.6800000000000E+00 -1.1422969526544E-01  5.1959730913807E-01
   170  1.6900000000000E+00 -1.1098819560031E-01  4.9619942258621E-01
   171  1.7000000000000E+00 -1.0758168179081E-01  4.7314864452257E-01
   172  1.7100000000000E+00 -1.0403174632898E-01  4.5047848770086E-01
   173  1.7200000000000E+00 -1.0035958487078E-01  4.2822088236332E-01
   174  1.7300000000000E+00 -9.6585929531236E-02  4.0640608783504E-01
   175  1.7400000000000E+00 -9.2730984594232E-02  3.8506261031231E-01
   176  1.7500000000000E+00 -8.8814365131098E-02  3.6421712763710E-01
   177  1.7600000000000E+00 -8.4855038605192E-02  3.4389442098134E-01
   178  1.7700000000000E+00 -8.0871269952345E-02  3.2411731417826E-01
   179  1.7800000000000E+00 -7.6880570176207E-02  3.0490662058684E-01
   180  1.7900000000000E+00 -7.2899648895566E-02  2.8628109809512E-01
   181  1.8000000000000E+00 -6.8944370892197E-02  2.6825741218951E-01
   182  1.8100000000000E+00 -6.5029716974453E-02  2.5085010746281E-01
   183  1.8200000000000E+00 -6.1169749284152E-02  2.3407158763349E-01
   184  1.8300000000000E+00 -5.7377581152580E-02  2.1793210409403E-01
   185  1.8400000000000E+00 -5.3665351798484E-02  2.0243975332773E-01
   186  1.8500000000000E+00 -5.0044205667365E-02  1.8760048272956E-01
   187  1.8600000000000E+00 -4.6524276960331E-02  1.7341810555435E-01
   188  1.8700000000000E+00 -4.3114678766247E-02  1.5989432395449E-01
   189  1.8800000000000E+00 -3.9823497604709E-02  1.4702876119644E-01
   190  1.8900000000000E+00 -3.6657792559491E-02  1.3481900169643E-01
   191  1.9000000000000E+00 -3.3623599734783E-02  1.2326063981997E-01
   192  1.9100000000000E+00 -3.0725941390123E-02  1.1234733637582E-01
   193  1.9200000000000E+00 -2.7968840055754E-02  1.0207088309782E-01
   194  1.9300000000000E+00 -2.5355337416409E-02  9.2421274681076E-02
   195  1.9400000000000E+00 -2.2887517664496E-02  8.3386787810270E-02
   196  1.9500000000000E+00 -2.0566535647637E-02  7.4954067489222E-02
   197  1.9600000000000E+00 -1.8392648898409E-02  6.7108219283135E-02
   198  1.9700000000000E+00 -1.6365254254460E-02  5.9832908277089E-02
   199  1.9800000000000E+00 -1.4482927992103E-02  5.3110463170992E-02
   200  1.9900000000000E+00 -1.2743469866857E-02  4.6921985866007E-02
   201  2.0000000000000E+00 -1.1143950513672E-02  4.1247465681276E-02
   202  2.0100000000000E+00 -9.6807618858603E-03  3.6065897626228E-02
   203  2.0200000000000E+00 -8.3496707895599E-03  3.1355404619504E-02
   204  2.0300000000000E+00 -7.1458746719956E-03  2.7093362471075E-02
   205  2.0400000000000E+00 -6.0640599337637E-03  2.3256527724920E-02
   206  2.0500000000000E+00 -5.0984619740388E-03  1.9821167289824E-02
   207  2.0600000000000E+00 -4.2429268630335E-03  1.6763189500624E-02
   208  2.0700000000000E+00 -3.4909742964592E-03  1.4058276012279E-02
   209  2.0800000000000E+00 -2.8358613436305E-03  1.1682013854931E-02
   210  2.0900000000000E+00 -2.2706467902821E-03  9.6100270541989E-03
   211  2.1000000000000E+00 -1.7882556387834E-03  7.8181073452876E-03
   212  2.1100000000000E+00 -1.3815433944106E-03  6.2823431873708E-03
   213  2.1200000000000E+00 -1.0433597939739E-03  4.9792465544896E-03
   214  2.1300000000000E+00 -7.6661176074723E-04  3.8858772298129E-03
   215  2.1400000000000E+00 -5.4432487102186E-04  2.9799632692610E-03
   216  2.1500000000000E+00 -3.6970350309545E-04  2.2400180860958E-03
   217  2.1600000000000E+00 -2.3618890792548E-04  1.6454528127245E-03
   218  2.1700000000000E+00 -1.3751491840955E-04  1.1766835015570E-03
   219  2.1800000000000E+00 -6.7761585599347E-05  8.1523369574872E-04
   220  2.1900000000000E+00 -2.1405278926270E-05  5.4382991138747E-04
   221  2.2000000000000E+00  6.6337930851727E-06  3.4649166548809E-04
   222  2.2100000000000E+00  2.0947562888495E-05  2.0861453098140E-04
   223  2.2200000000000E+00  2.5595076102982E-05  1.1705323646783E-04
   224  2.2300000000000E+00  2.4084796042714E-05  6.0160621811710E-05
   225  2.2400000000000E+00  1.9311304651704E-05  2.7895360888044E-05
   226  2.2500000000000E+00  1.3499225855798E-05  1.1916166349101E-05
   227  2.2600000000000E+00  8.4189457248014E-06  5.2689856727846E-06
   228  2.2700000000000E+00  5.1990725118283E-06  2.7175301060064E-06
   229  2.2800000000000E+00  3.8760837968303E-06  1.2902753921601E-06
   230  2.2900000000000E+00  3.4210737183603E-06  2.3094413367799E-07
   231  2.3000000000000E+00  2.5227223514529E-06 -1.6748479718919E-07
   232  2.3100000000000E+00  1.2263229176732E-06 -1.4983255778940E-07
   233  2.3200000000000E+00  2.6627215515802E-08 -4.2503713193866E-09
   234  2.3300000000000E+00 -3.1297995234783E-07  1.3021826555215E-08
   235  2.3400000000000E+00 -2.1782045487057E-07  7.4527109776626E-09
   236  2.3500000000000E+00  1.8675822584908E-08 -2.6669764057437E-09
   237  2.3600000000000E+00  7.0562457868156E-08 -1.0690342962568E-08
   238  2.3700000000000E+00  4.1670618688016E-08 -6.6126129179406E-09
   239  2.3800000000000E+00 -4.2667858567531E-09  1.8730940917384E-11
   240  2.3900000000000E+00 -9.4030981325283E-09  4.1279052071945E-11
   241  2.4000000000000E+00 -4.4856360624683E-09  1.9691680549189E-11
   242  2.4100000000000E+00  0.0000000000000E+00  0.0000000000000E+00
   243  2.4200000000000E+00  0.0000000000000E+00  0.0000000000000E+00
   244  2.4300000000000E+00  0.0000000000000E+00  0.0000000000000E+00
   245  2.4400000000000E+00  0.0000000000000E+00  0.0000000000000E+00
   246  2.4500000000000E+00  0.0000000000000E+00  0.0000000000000E+00
   247  2.4600000000000E+00  0.0000000000000E+00  0.0000000000000E+00
   248  2.4700000000000E+00  0.0000000000000E+00  0.0000000000000E+00
   249  2.4800000000000E+00  0.0000000000000E+00  0.0000000000000E+00
   250  2.4900000000000E+00  0.0000000000000E+00  0.0000000000000E+00
   251  2.5000000000000E+00  0.0000000000000E+00  0.0000000000000E+00
   252  2.5100000000000E+00  0.0000000000000E+00  0.0000000000000E+00
   253  2.5200000000000E+00  0.0000000000000E+00  0.0000000000000E+00
   254  2.5300000000000E+00  0.0000000000000E+00  0.0000000000000E+00
   255  2.5400000000000E+00  0.0000000000000E+00  0.0000000000000E+00
   256  2.5500000000000E+00  0.0000000000000E+00  0.0000000000000E+00
   257  2.5600000000000E+00  0.0000000000000E+00  0.0000000000000E+00
   258  2.5700000000000E+00  0.0000000000000E+00  0.0000000000000E+00
   259  2.5800000000000E+00  0.0000000000000E+00  0.0000000000000E+00
   260  2.5900000000000E+00  0.0000000000000E+00  0.0000000000000E+00
   261  2.6000000000000E+00  0.0000000000000E+00  0.0000000000000E+00
   262  2.6100000000000E+00  0.0000000000000E+00  0.0000000000000E+00
   263  2.6200000000000E+00  0.0000000000000E+00  0.0000000000000E+00
   264  2.6300000000000E+00  0.0000000000000E+00  0.0000000000000E+00
   265  2.6400000000000E+00  0.0000000000000E+00  0.0000000000000E+00
   266  2.6500000000000E+00  0.0000000000000E+00  0.0000000000000E+00
   267  2.6600000000000E+00  0.0000000000000E+00  0.0000000000000E+00
   268  2.6700000000000E+00  0.0000000000000E+00  0.0000000000000E+00
   269  2.6800000000000E+00  0.0000000000000E+00  0.0000000000000E+00
   270  2.6900000000000E+00  0.0000000000000E+00  0.0000000000000E+00
   271  2.7000000000000E+00  0.0000000000000E+00  0.0000000000000E+00
   272  2.7100000000000E+00  0.0000000000000E+00  0.0000000000000E+00
   273  2.7200000000000E+00  0.0000000000000E+00  0.0000000000000E+00
   274  2.7300000000000E+00  0.0000000000000E+00  0.0000000000000E+00
   275  2.7400000000000E+00  0.0000000000000E+00  0.0000000000000E+00
   276  2.7500000000000E+00  0.0000000000000E+00  0.0000000000000E+00
   277  2.7600000000000E+00  0.0000000000000E+00  0.0000000000000E+00
   278  2.7700000000000E+00  0.0000000000000E+00  0.0000000000000E+00
   279  2.7800000000000E+00  0.0000000000000E+00  0.0000000000000E+00
   280  2.7900000000000E+00  0.0000000000000E+00  0.0000000000000E+00
   281  2.8000000000000E+00  0.0000000000000E+00  0.0000000000000E+00
   282  2.8100000000000E+00  0.0000000000000E+00  0.0000000000000E+00
   283  2.8200000000000E+00  0.0000000000000E+00  0.0000000000000E+00
   284  2.8300000000000E+00  0.0000000000000E+00  0.0000000000000E+00
   285  2.8400000000000E+00  0.0000000000000E+00  0.0000000000000E+00
   286  2.8500000000000E+00  0.0000000000000E+00  0.0000000000000E+00
   287  2.8600000000000E+00  0.0000000000000E+00  0.0000000000000E+00
   288  2.8700000000000E+00  0.0000000000000E+00  0.0000000000000E+00
   289  2.8800000000000E+00  0.0000000000000E+00  0.0000000000000E+00
   290  2.8900000000000E+00  0.0000000000000E+00  0.0000000000000E+00
   291  2.9000000000000E+00  0.0000000000000E+00  0.0000000000000E+00
   292  2.9100000000000E+00  0.0000000000000E+00  0.0000000000000E+00
   293  2.9200000000000E+00  0.0000000000000E+00  0.0000000000000E+00
   294  2.9300000000000E+00  0.0000000000000E+00  0.0000000000000E+00
   295  2.9400000000000E+00  0.0000000000000E+00  0.0000000000000E+00
   296  2.9500000000000E+00  0.0000000000000E+00  0.0000000000000E+00
   297  2.9600000000000E+00  0.0000000000000E+00  0.0000000000000E+00
   298  2.9700000000000E+00  0.0000000000000E+00  0.0000000000000E+00
   299  2.9800000000000E+00  0.0000000000000E+00  0.0000000000000E+00
   300  2.9900000000000E+00  0.0000000000000E+00  0.0000000000000E+00
   301  3.0000000000000E+00  0.0000000000000E+00  0.0000000000000E+00
   302  3.0100000000000E+00  0.0000000000000E+00  0.0000000000000E+00
   303  3.0200000000000E+00  0.0000000000000E+00  0.0000000000000E+00
   304  3.0300000000000E+00  0.0000000000000E+00  0.0000000000000E+00
   305  3.0400000000000E+00  0.0000000000000E+00  0.0000000000000E+00
   306  3.0500000000000E+00  0.0000000000000E+00  0.0000000000000E+00
   307  3.0600000000000E+00  0.0000000000000E+00  0.0000000000000E+00
   308  3.0700000000000E+00  0.0000000000000E+00  0.0000000000000E+00
   309  3.0800000000000E+00  0.0000000000000E+00  0.0000000000000E+00
   310  3.0900000000000E+00  0.0000000000000E+00  0.0000000000000E+00
   311  3.1000000000000E+00  0.0000000000000E+00  0.0000000000000E+00
   312  3.1100000000000E+00  0.0000000000000E+00  0.0000000000000E+00
   313  3.1200000000000E+00  0.0000000000000E+00  0.0000000000000E+00
   314  3.1300000000000E+00  0.0000000000000E+00  0.0000000000000E+00
   315  3.1400000000000E+00  0.0000000000000E+00  0.0000000000000E+00
   316  3.1500000000000E+00  0.0000000000000E+00  0.0000000000000E+00
   317  3.1600000000000E+00  0.0000000000000E+00  0.0000000000000E+00
   318  3.1700000000000E+00  0.0000000000000E+00  0.0000000000000E+00
   319  3.1800000000000E+00  0.0000000000000E+00  0.0000000000000E+00
   320  3.1900000000000E+00  0.0000000000000E+00  0.0000000000000E+00
   321  3.2000000000000E+00  0.0000000000000E+00  0.0000000000000E+00
   322  3.2100000000000E+00  0.0000000000000E+00  0.0000000000000E+00
   323  3.2200000000000E+00  0.0000000000000E+00  0.0000000000000E+00
   324  3.2300000000000E+00  0.0000000000000E+00  0.0000000000000E+00
   325  3.2400000000000E+00  0.0000000000000E+00  0.0000000000000E+00
   326  3.2500000000000E+00  0.0000000000000E+00  0.0000000000000E+00
   327  3.2600000000000E+00  0.0000000000000E+00  0.0000000000000E+00
   328  3.2700000000000E+00  0.0000000000000E+00  0.0000000000000E+00
   329  3.2800000000000E+00  0.0000000000000E+00  0.0000000000000E+00
   330  3.2900000000000E+00  0.0000000000000E+00  0.0000000000000E+00
   331  3.3000000000000E+00  0.0000000000000E+00  0.0000000000000E+00
   332  3.3100000000000E+00  0.0000000000000E+00  0.0000000000000E+00
   333  3.3200000000000E+00  0.0000000000000E+00  0.0000000000000E+00
   334  3.3300000000000E+00  0.0000000000000E+00  0.0000000000000E+00
   335  3.3400000000000E+00  0.0000000000000E+00  0.0000000000000E+00
   336  3.3500000000000E+00  0.0000000000000E+00  0.0000000000000E+00
   337  3.3600000000000E+00  0.0000000000000E+00  0.0000000000000E+00
   338  3.3700000000000E+00  0.0000000000000E+00  0.0000000000000E+00
   339  3.3800000000000E+00  0.0000000000000E+00  0.0000000000000E+00
   340  3.3900000000000E+00  0.0000000000000E+00  0.0000000000000E+00
   341  3.4000000000000E+00  0.0000000000000E+00  0.0000000000000E+00
   342  3.4100000000000E+00  0.0000000000000E+00  0.0000000000000E+00
   343  3.4200000000000E+00  0.0000000000000E+00  0.0000000000000E+00
   344  3.4300000000000E+00  0.0000000000000E+00  0.0000000000000E+00
   345  3.4400000000000E+00  0.0000000000000E+00  0.0000000000000E+00
   346  3.4500000000000E+00  0.0000000000000E+00  0.0000000000000E+00
   347  3.4600000000000E+00  0.0000000000000E+00  0.0000000000000E+00
   348  3.4700000000000E+00  0.0000000000000E+00  0.0000000000000E+00
   349  3.4800000000000E+00  0.0000000000000E+00  0.0000000000000E+00
   350  3.4900000000000E+00  0.0000000000000E+00  0.0000000000000E+00
   351  3.5000000000000E+00  0.0000000000000E+00  0.0000000000000E+00
   352  3.5100000000000E+00  0.0000000000000E+00  0.0000000000000E+00
   353  3.5200000000000E+00  0.0000000000000E+00  0.0000000000000E+00
   354  3.5300000000000E+00  0.0000000000000E+00  0.0000000000000E+00
   355  3.5400000000000E+00  0.0000000000000E+00  0.0000000000000E+00
   356  3.5500000000000E+00  0.0000000000000E+00  0.0000000000000E+00
   357  3.5600000000000E+00  0.0000000000000E+00  0.0000000000000E+00
   358  3.5700000000000E+00  0.0000000000000E+00  0.0000000000000E+00
   359  3.5800000000000E+00  0.0000000000000E+00  0.0000000000000E+00
   360  3.5900000000000E+00  0.0000000000000E+00  0.0000000000000E+00
   361  3.6000000000000E+00  0.0000000000000E+00  0.0000000000000E+00
   362  3.6100000000000E+00  0.0000000000000E+00  0.0000000000000E+00
   363  3.6200000000000E+00  0.0000000000000E+00  0.0000000000000E+00
   364  3.6300000000000E+00  0.0000000000000E+00  0.0000000000000E+00
   365  3.6400000000000E+00  0.0000000000000E+00  0.0000000000000E+00
   366  3.6500000000000E+00  0.0000000000000E+00  0.0000000000000E+00
   367  3.6600000000000E+00  0.0000000000000E+00  0.0000000000000E+00
   368  3.6700000000000E+00  0.0000000000000E+00  0.0000000000000E+00
   369  3.6800000000000E+00  0.0000000000000E+00  0.0000000000000E+00
   370  3.6900000000000E+00  0.0000000000000E+00  0.0000000000000E+00
   371  3.7000000000000E+00  0.0000000000000E+00  0.0000000000000E+00
   372  3.7100000000000E+00  0.0000000000000E+00  0.0000000000000E+00
   373  3.7200000000000E+00  0.0000000000000E+00  0.0000000000000E+00
   374  3.7300000000000E+00  0.0000000000000E+00  0.0000000000000E+00
   375  3.7400000000000E+00  0.0000000000000E+00  0.0000000000000E+00
   376  3.7500000000000E+00  0.0000000000000E+00  0.0000000000000E+00
   377  3.7600000000000E+00  0.0000000000000E+00  0.0000000000000E+00
   378  3.7700000000000E+00  0.0000000000000E+00  0.0000000000000E+00
   379  3.7800000000000E+00  0.0000000000000E+00  0.0000000000000E+00
   380  3.7900000000000E+00  0.0000000000000E+00  0.0000000000000E+00
   381  3.8000000000000E+00  0.0000000000000E+00  0.0000000000000E+00
   382  3.8100000000000E+00  0.0000000000000E+00  0.0000000000000E+00
   383  3.8200000000000E+00  0.0000000000000E+00  0.0000000000000E+00
   384  3.8300000000000E+00  0.0000000000000E+00  0.0000000000000E+00
   385  3.8400000000000E+00  0.0000000000000E+00  0.0000000000000E+00
   386  3.8500000000000E+00  0.0000000000000E+00  0.0000000000000E+00
   387  3.8600000000000E+00  0.0000000000000E+00  0.0000000000000E+00
   388  3.8700000000000E+00  0.0000000000000E+00  0.0000000000000E+00
   389  3.8800000000000E+00  0.0000000000000E+00  0.0000000000000E+00
   390  3.8900000000000E+00  0.0000000000000E+00  0.0000000000000E+00
   391  3.9000000000000E+00  0.0000000000000E+00  0.0000000000000E+00
   392  3.9100000000000E+00  0.0000000000000E+00  0.0000000000000E+00
   393  3.9200000000000E+00  0.0000000000000E+00  0.0000000000000E+00
   394  3.9300000000000E+00  0.0000000000000E+00  0.0000000000000E+00
   395  3.9400000000000E+00  0.0000000000000E+00  0.0000000000000E+00
   396  3.9500000000000E+00  0.0000000000000E+00  0.0000000000000E+00
   397  3.9600000000000E+00  0.0000000000000E+00  0.0000000000000E+00
   398  3.9700000000000E+00  0.0000000000000E+00  0.0000000000000E+00
   399  3.9800000000000E+00  0.0000000000000E+00  0.0000000000000E+00
   400  3.9900000000000E+00  0.0000000000000E+00  0.0000000000000E+00
   401  4.0000000000000E+00  0.0000000000000E+00  0.0000000000000E+00
   402  4.0100000000000E+00  0.0000000000000E+00  0.0000000000000E+00
   403  4.0200000000000E+00  0.0000000000000E+00  0.0000000000000E+00
   404  4.0300000000000E+00  0.0000000000000E+00  0.0000000000000E+00
   405  4.0400000000000E+00  0.0000000000000E+00  0.0000000000000E+00
   406  4.0500000000000E+00  0.0000000000000E+00  0.0000000000000E+00
   407  4.0600000000000E+00  0.0000000000000E+00  0.0000000000000E+00
   408  4.0700000000000E+00  0.0000000000000E+00  0.0000000000000E+00
   409  4.0800000000000E+00  0.0000000000000E+00  0.0000000000000E+00
   410  4.0900000000000E+00  0.0000000000000E+00  0.0000000000000E+00
   411  4.1000000000000E+00  0.0000000000000E+00  0.0000000000000E+00
   412  4.1100000000000E+00  0.0000000000000E+00  0.0000000000000E+00
   413  4.1200000000000E+00  0.0000000000000E+00  0.0000000000000E+00
   414  4.1300000000000E+00  0.0000000000000E+00  0.0000000000000E+00
   415  4.1400000000000E+00  0.0000000000000E+00  0.0000000000000E+00
   416  4.1500000000000E+00  0.0000000000000E+00  0.0000000000000E+00
   417  4.1600000000000E+00  0.0000000000000E+00  0.0000000000000E+00
   418  4.1700000000000E+00  0.0000000000000E+00  0.0000000000000E+00
   419  4.1800000000000E+00  0.0000000000000E+00  0.0000000000000E+00
   420  4.1900000000000E+00  0.0000000000000E+00  0.0000000000000E+00
   421  4.2000000000000E+00  0.0000000000000E+00  0.0000000000000E+00
   422  4.2100000000000E+00  0.0000000000000E+00  0.0000000000000E+00
   423  4.2200000000000E+00  0.0000000000000E+00  0.0000000000000E+00