Mo    ONCVPSP-3.3.0  r_core=   1.45541   1.45541   1.35488
42.0000     14.0000      171115    zatom,zion,pspd
8      11   2     4   600     0    pspcod,pspxc,lmax,lloc,mmax,r2well
5.99000000  3.00000000  0.00000000    rchrg fchrg qchrg
2     3     3     0    nproj
3     1           extension_switch
4     3     0    nprojso
0                         1.3489276808541E+00  1.3831235715800E+01
1  0.0000000000000E+00 -4.8342954639402E-10  1.8239398880127E-10
2  1.0000000000000E-02 -1.8123454650335E-02  5.5844618790864E-02
3  2.0000000000000E-02 -3.6271232896718E-02  1.1164860837660E-01
4  3.0000000000000E-02 -5.4466497300280E-02  1.6737093910936E-01
5  4.0000000000000E-02 -7.2730101778149E-02  2.2296978555886E-01
6  5.0000000000000E-02 -9.1079470722862E-02  2.7840214133234E-01
7  6.0000000000000E-02 -1.0952751790726E-01  3.3362344901793E-01
8  7.0000000000000E-02 -1.2808161786613E-01  3.8858725007734E-01
9  8.0000000000000E-02 -1.4674264196242E-01  4.4324485933126E-01
10  9.0000000000000E-02 -1.6550407074885E-01  4.9754506845579E-01
11  1.0000000000000E-01 -1.8435119353004E-01  5.5143388264168E-01
12  1.1000000000000E-01 -2.0326040522094E-01  6.0485429426342E-01
13  1.2000000000000E-01 -2.2219860969138E-01  6.5774609706311E-01
14  1.3000000000000E-01 -2.4112273779131E-01  7.1004574397924E-01
15  1.4000000000000E-01 -2.5997938717400E-01  7.6168625134404E-01
16  1.5000000000000E-01 -2.7870458988484E-01  8.1259715174028E-01
17  1.6000000000000E-01 -2.9722371247060E-01  8.6270449735103E-01
18  1.7000000000000E-01 -3.1545149209706E-01  9.1193091515886E-01
19  1.8000000000000E-01 -3.3329221085419E-01  9.6019571485796E-01
20  1.9000000000000E-01 -3.5064000908699E-01  1.0074150498375E+00
21  2.0000000000000E-01 -3.6737933722813E-01  1.0535021310815E+00
22  2.1000000000000E-01 -3.8338554423899E-01  1.0983674933158E+00
23  2.2000000000000E-01 -3.9852559939766E-01  1.1419193122143E+00
24  2.3000000000000E-01 -4.1265894282057E-01  1.1840637709723E+00
25  2.4000000000000E-01 -4.2563845877940E-01  1.2247054740498E+00
26  2.5000000000000E-01 -4.3731156458796E-01  1.2637479054064E+00
27  2.6000000000000E-01 -4.4752140659931E-01  1.3010939280809E+00
28  2.7000000000000E-01 -4.5610815367919E-01  1.3366463215263E+00
29  2.8000000000000E-01 -4.6291037742284E-01  1.3703083526932E+00
30  2.9000000000000E-01 -4.6776650736661E-01  1.4019843764705E+00
31  3.0000000000000E-01 -4.7051634852448E-01  1.4315804607396E+00
32  3.1000000000000E-01 -4.7100264776259E-01  1.4590050309880E+00
33  3.2000000000000E-01 -4.6907269481995E-01  1.4841695291524E+00
34  3.3000000000000E-01 -4.6457994320001E-01  1.5069890811395E+00
35  3.4000000000000E-01 -4.5738563570045E-01  1.5273831672850E+00
36  3.5000000000000E-01 -4.4736041902672E-01  1.5452762898862E+00
37  3.6000000000000E-01 -4.3438593174983E-01  1.5605986318548E+00
38  3.7000000000000E-01 -4.1835634982736E-01  1.5732867005121E+00
39  3.8000000000000E-01 -3.9917987400969E-01  1.5832839505686E+00
40  3.9000000000000E-01 -3.7678014370292E-01  1.5905413804062E+00
41  4.0000000000000E-01 -3.5109756225582E-01  1.5950180959121E+00
42  4.1000000000000E-01 -3.2209051917873E-01  1.5966818362920E+00
43  4.2000000000000E-01 -2.8973649548680E-01  1.5955094565273E+00
44  4.3000000000000E-01 -2.5403303918128E-01  1.5914873614237E+00
45  4.4000000000000E-01 -2.1499859883847E-01  1.5846118865284E+00
46  4.5000000000000E-01 -1.7267320435847E-01  1.5748896215772E+00
47  4.6000000000000E-01 -1.2711898512674E-01  1.5623376725483E+00
48  4.7000000000000E-01 -7.8420517152743E-02  1.5469838588681E+00
49  4.8000000000000E-01 -2.6684992159814E-02  1.5288668428057E+00
50  4.9000000000000E-01  2.7957796900333E-02  1.5080361886318E+00
51  5.0000000000000E-01  8.5355657862287E-02  1.4845523496699E+00
52  5.1000000000000E-01  1.4533439120798E-01  1.4584865819540E+00
53  5.2000000000000E-01  2.0769837240740E-01  1.4299207838091E+00
54  5.3000000000000E-01  2.7223132365612E-01  1.3989472612817E+00
55  5.4000000000000E-01  3.3869727219255E-01  1.3656684199734E+00
56  5.5000000000000E-01  4.0684169064222E-01  1.3301963844544E+00
57  5.6000000000000E-01  4.7639281311612E-01  1.2926525470556E+00
58  5.7000000000000E-01  5.4706311910213E-01  1.2531670484500E+00
59  5.8000000000000E-01  6.1855097554486E-01  1.2118781930341E+00
60  5.9000000000000E-01  6.9054242593591E-01  1.1689318026978E+00
61  6.0000000000000E-01  7.6271311373534E-01  1.1244805131221E+00
62  6.1000000000000E-01  8.3473032604732E-01  1.0786830172679E+00
63  6.2000000000000E-01  9.0625514217875E-01  1.0317032612039E+00
64  6.3000000000000E-01  9.7694467054331E-01  9.8370959786635E-01
65  6.4000000000000E-01  1.0464543563441E+00  9.3487390474211E-01
66  6.5000000000000E-01  1.1144403415849E+00  8.8537067181824E-01
67  6.6000000000000E-01  1.1805618582385E+00  8.3537606643661E-01
68  6.7000000000000E-01  1.2444836348495E+00  7.8506698193348E-01
69  6.8000000000000E-01  1.3058782964675E+00  7.3462007712511E-01
70  6.9000000000000E-01  1.3644287376152E+00  6.8421081382109E-01
71  7.0000000000000E-01  1.4198304479863E+00  6.3401249960429E-01
72  7.1000000000000E-01  1.4717937707458E+00  5.8419534311010E-01
73  7.2000000000000E-01  1.5200460736791E+00  5.3492552896709E-01
74  7.3000000000000E-01  1.5643338139906E+00  4.8636431942645E-01
75  7.4000000000000E-01  1.6044244782993E+00  4.3866718950927E-01
76  7.5000000000000E-01  1.6401083802948E+00  3.9198300224276E-01
77  7.6000000000000E-01  1.6712002996211E+00  3.4645323023524E-01
78  7.7000000000000E-01  1.6975409468108E+00  3.0221122946474E-01
79  7.8000000000000E-01  1.7189982405047E+00  2.5938157072627E-01
80  7.9000000000000E-01  1.7354683847500E+00  2.1807943370262E-01
81  8.0000000000000E-01  1.7468767358475E+00  1.7841006809891E-01
82  8.1000000000000E-01  1.7531784500158E+00  1.4046832571490E-01
83  8.2000000000000E-01  1.7543589050252E+00  1.0433826672859E-01
84  8.3000000000000E-01  1.7504338909228E+00  7.0092842833207E-02
85  8.4000000000000E-01  1.7414495669904E+00  3.7793659215950E-02
86  8.5000000000000E-01  1.7274821841431E+00  7.4908166948344E-03
87  8.6000000000000E-01  1.7086375740528E+00 -2.0777165352251E-02
88  8.7000000000000E-01  1.6850504083607E+00 -4.6983345318990E-02
89  8.8000000000000E-01  1.6568832333945E+00 -7.1112275698919E-02
90  8.9000000000000E-01  1.6243252878173E+00 -9.3159840821785E-02
91  9.0000000000000E-01  1.5875911125747E+00 -1.1313301806740E-01
92  9.1000000000000E-01  1.5469189643671E+00 -1.3104956526250E-01
93  9.2000000000000E-01  1.5025690456254E+00 -1.4693763757250E-01
94  9.3000000000000E-01  1.4548215655941E+00 -1.6083533777217E-01
95  9.4000000000000E-01  1.4039746486162E+00 -1.7279020430933E-01
96  9.5000000000000E-01  1.3503421070370E+00 -1.8285864206065E-01
97  9.6000000000000E-01  1.2942510973062E+00 -1.9110530111145E-01
98  9.7000000000000E-01  1.2360396788225E+00 -1.9760240926905E-01
99  9.8000000000000E-01  1.1760542958421E+00 -2.0242906433782E-01
100  9.9000000000000E-01  1.1146472033386E+00 -2.0567049243963E-01
101  1.0000000000000E+00  1.0521738580536E+00 -2.0741727885090E-01
102  1.0100000000000E+00  9.8899029612429E-01 -2.0776457795683E-01
103  1.0200000000000E+00  9.2545051858020E-01 -2.0681130897264E-01
104  1.0300000000000E+00  8.6190390570347E-01 -2.0465934407032E-01
105  1.0400000000000E+00  7.9869268073207E-01 -2.0141269546935E-01
106  1.0500000000000E+00  7.3614944259755E-01 -1.9717670788621E-01
107  1.0600000000000E+00  6.7459478656196E-01 -1.9205726255133E-01
108  1.0700000000000E+00  6.1433503034837E-01 -1.8615999869209E-01
109  1.0800000000000E+00  5.5566006210717E-01 -1.7958955805865E-01
110  1.0900000000000E+00  4.9884132505836E-01 -1.7244885767526E-01
111  1.1000000000000E+00  4.4412995185060E-01 -1.6483839551198E-01
112  1.1100000000000E+00  3.9175506023918E-01 -1.5685559337861E-01
113  1.1200000000000E+00  3.4192221930045E-01 -1.4859418067713E-01
114  1.1300000000000E+00  2.9481209372841E-01 -1.4014362217495E-01
115  1.1400000000000E+00  2.5057927131879E-01 -1.3158859226292E-01
116  1.1500000000000E+00  2.0935127712839E-01 -1.2300849769653E-01
117  1.1600000000000E+00  1.7122777498055E-01 -1.1447704999922E-01
118  1.1700000000000E+00  1.3627995515150E-01 -1.0606188816453E-01
119  1.1800000000000E+00  1.0455010453687E-01 -9.7824251541545E-02
120  1.1900000000000E+00  7.6051354206731E-02 -8.9818702376259E-02
121  1.2000000000000E+00  5.0767596082083E-02 -8.2092896524711E-02
122  1.2100000000000E+00  2.8653559027828E-02 -7.4687400412016E-02
123  1.2200000000000E+00  9.6350281997953E-03 -6.7635550844130E-02
124  1.2300000000000E+00 -6.3907760737895E-03 -6.0963360492868E-02
125  1.2400000000000E+00 -1.9554806570946E-02 -5.4689438772574E-02
126  1.2500000000000E+00 -3.0015163562366E-02 -4.8825054072772E-02
127  1.2600000000000E+00 -3.7957682057411E-02 -4.3373880683338E-02
128  1.2700000000000E+00 -4.3593267959773E-02 -3.8332410501272E-02
129  1.2800000000000E+00 -4.7149877930158E-02 -3.3691438123363E-02
130  1.2900000000000E+00 -4.8863811139553E-02 -2.9437820578859E-02
131  1.3000000000000E+00 -4.8973063043163E-02 -2.5555884076049E-02
132  1.3100000000000E+00 -4.7716217454903E-02 -2.2027776274145E-02
133  1.3200000000000E+00 -4.5329533206637E-02 -1.8834170391832E-02
134  1.3300000000000E+00 -4.2044445486174E-02 -1.5954893030999E-02
135  1.3400000000000E+00 -3.8085071733626E-02 -1.3369553215627E-02
136  1.3500000000000E+00 -3.3665850223752E-02 -1.1058144707715E-02
137  1.3600000000000E+00 -2.8989283090164E-02 -9.0016249932100E-03
138  1.3700000000000E+00 -2.4243814627123E-02 -7.1824626974142E-03
139  1.3800000000000E+00 -1.9601865309574E-02 -5.5851474045506E-03
140  1.3900000000000E+00 -1.5218041521220E-02 -4.1966560799496E-03
141  1.4000000000000E+00 -1.1227524207538E-02 -3.0068738769017E-03
142  1.4100000000000E+00 -7.7470703341352E-03 -2.0094185293603E-03
143  1.4200000000000E+00 -4.8625000301536E-03 -1.1998027513619E-03
144  1.4300000000000E+00 -2.6281868233631E-03 -5.7704380339703E-04
145  1.4400000000000E+00 -1.1688782313065E-03 -1.5432476147568E-04
146  1.4500000000000E+00 -4.6545310286019E-04  6.3959113065850E-05
147  1.4600000000000E+00 -1.6649296950051E-04  9.3501872628686E-05
148  1.4700000000000E+00 -2.1998142886654E-05  2.0693880272707E-05
149  1.4800000000000E+00  1.3261287079391E-05 -1.5914759537818E-05
150  1.4900000000000E+00  8.4736185817731E-07 -1.2435657342874E-06
151  1.5000000000000E+00 -3.5681818656368E-06  3.2885444340574E-06
152  1.5100000000000E+00  2.5107081192863E-07 -9.1018621175915E-08
153  1.5200000000000E+00  7.0183511380711E-07 -2.5443046868277E-07
154  1.5300000000000E+00  0.0000000000000E+00  0.0000000000000E+00
155  1.5400000000000E+00  0.0000000000000E+00  0.0000000000000E+00
156  1.5500000000000E+00  0.0000000000000E+00  0.0000000000000E+00
157  1.5600000000000E+00  0.0000000000000E+00  0.0000000000000E+00
158  1.5700000000000E+00  0.0000000000000E+00  0.0000000000000E+00
159  1.5800000000000E+00  0.0000000000000E+00  0.0000000000000E+00
160  1.5900000000000E+00  0.0000000000000E+00  0.0000000000000E+00
161  1.6000000000000E+00  0.0000000000000E+00  0.0000000000000E+00
162  1.6100000000000E+00  0.0000000000000E+00  0.0000000000000E+00
163  1.6200000000000E+00  0.0000000000000E+00  0.0000000000000E+00
164  1.6300000000000E+00  0.0000000000000E+00  0.0000000000000E+00
165  1.6400000000000E+00  0.0000000000000E+00  0.0000000000000E+00
166  1.6500000000000E+00  0.0000000000000E+00  0.0000000000000E+00
167  1.6600000000000E+00  0.0000000000000E+00  0.0000000000000E+00
168  1.6700000000000E+00  0.0000000000000E+00  0.0000000000000E+00
169  1.6800000000000E+00  0.0000000000000E+00  0.0000000000000E+00
170  1.6900000000000E+00  0.0000000000000E+00  0.0000000000000E+00
171  1.7000000000000E+00  0.0000000000000E+00  0.0000000000000E+00
172  1.7100000000000E+00  0.0000000000000E+00  0.0000000000000E+00
173  1.7200000000000E+00  0.0000000000000E+00  0.0000000000000E+00
174  1.7300000000000E+00  0.0000000000000E+00  0.0000000000000E+00
175  1.7400000000000E+00  0.0000000000000E+00  0.0000000000000E+00
176  1.7500000000000E+00  0.0000000000000E+00  0.0000000000000E+00
177  1.7600000000000E+00  0.0000000000000E+00  0.0000000000000E+00
178  1.7700000000000E+00  0.0000000000000E+00  0.0000000000000E+00
179  1.7800000000000E+00  0.0000000000000E+00  0.0000000000000E+00
180  1.7900000000000E+00  0.0000000000000E+00  0.0000000000000E+00
181  1.8000000000000E+00  0.0000000000000E+00  0.0000000000000E+00
182  1.8100000000000E+00  0.0000000000000E+00  0.0000000000000E+00
183  1.8200000000000E+00  0.0000000000000E+00  0.0000000000000E+00
184  1.8300000000000E+00  0.0000000000000E+00  0.0000000000000E+00
185  1.8400000000000E+00  0.0000000000000E+00  0.0000000000000E+00
186  1.8500000000000E+00  0.0000000000000E+00  0.0000000000000E+00
187  1.8600000000000E+00  0.0000000000000E+00  0.0000000000000E+00
188  1.8700000000000E+00  0.0000000000000E+00  0.0000000000000E+00
189  1.8800000000000E+00  0.0000000000000E+00  0.0000000000000E+00
190  1.8900000000000E+00  0.0000000000000E+00  0.0000000000000E+00
191  1.9000000000000E+00  0.0000000000000E+00  0.0000000000000E+00
192  1.9100000000000E+00  0.0000000000000E+00  0.0000000000000E+00
193  1.9200000000000E+00  0.0000000000000E+00  0.0000000000000E+00
194  1.9300000000000E+00  0.0000000000000E+00  0.0000000000000E+00
195  1.9400000000000E+00  0.0000000000000E+00  0.0000000000000E+00
196  1.9500000000000E+00  0.0000000000000E+00  0.0000000000000E+00
197  1.9600000000000E+00  0.0000000000000E+00  0.0000000000000E+00
198  1.9700000000000E+00  0.0000000000000E+00  0.0000000000000E+00
199  1.9800000000000E+00  0.0000000000000E+00  0.0000000000000E+00
200  1.9900000000000E+00  0.0000000000000E+00  0.0000000000000E+00
201  2.0000000000000E+00  0.0000000000000E+00  0.0000000000000E+00
202  2.0100000000000E+00  0.0000000000000E+00  0.0000000000000E+00
203  2.0200000000000E+00  0.0000000000000E+00  0.0000000000000E+00
204  2.0300000000000E+00  0.0000000000000E+00  0.0000000000000E+00
205  2.0400000000000E+00  0.0000000000000E+00  0.0000000000000E+00
206  2.0500000000000E+00  0.0000000000000E+00  0.0000000000000E+00
207  2.0600000000000E+00  0.0000000000000E+00  0.0000000000000E+00
208  2.0700000000000E+00  0.0000000000000E+00  0.0000000000000E+00
209  2.0800000000000E+00  0.0000000000000E+00  0.0000000000000E+00
210  2.0900000000000E+00  0.0000000000000E+00  0.0000000000000E+00
211  2.1000000000000E+00  0.0000000000000E+00  0.0000000000000E+00
212  2.1100000000000E+00  0.0000000000000E+00  0.0000000000000E+00
213  2.1200000000000E+00  0.0000000000000E+00  0.0000000000000E+00
214  2.1300000000000E+00  0.0000000000000E+00  0.0000000000000E+00
215  2.1400000000000E+00  0.0000000000000E+00  0.0000000000000E+00
216  2.1500000000000E+00  0.0000000000000E+00  0.0000000000000E+00
217  2.1600000000000E+00  0.0000000000000E+00  0.0000000000000E+00
218  2.1700000000000E+00  0.0000000000000E+00  0.0000000000000E+00
219  2.1800000000000E+00  0.0000000000000E+00  0.0000000000000E+00
220  2.1900000000000E+00  0.0000000000000E+00  0.0000000000000E+00
221  2.2000000000000E+00  0.0000000000000E+00  0.0000000000000E+00
222  2.2100000000000E+00  0.0000000000000E+00  0.0000000000000E+00
223  2.2200000000000E+00  0.0000000000000E+00  0.0000000000000E+00
224  2.2300000000000E+00  0.0000000000000E+00  0.0000000000000E+00
225  2.2400000000000E+00  0.0000000000000E+00  0.0000000000000E+00
226  2.2500000000000E+00  0.0000000000000E+00  0.0000000000000E+00
227  2.2600000000000E+00  0.0000000000000E+00  0.0000000000000E+00
228  2.2700000000000E+00  0.0000000000000E+00  0.0000000000000E+00
229  2.2800000000000E+00  0.0000000000000E+00  0.0000000000000E+00
230  2.2900000000000E+00  0.0000000000000E+00  0.0000000000000E+00
231  2.3000000000000E+00  0.0000000000000E+00  0.0000000000000E+00
232  2.3100000000000E+00  0.0000000000000E+00  0.0000000000000E+00
233  2.3200000000000E+00  0.0000000000000E+00  0.0000000000000E+00
234  2.3300000000000E+00  0.0000000000000E+00  0.0000000000000E+00
235  2.3400000000000E+00  0.0000000000000E+00  0.0000000000000E+00
236  2.3500000000000E+00  0.0000000000000E+00  0.0000000000000E+00
237  2.3600000000000E+00  0.0000000000000E+00  0.0000000000000E+00
238  2.3700000000000E+00  0.0000000000000E+00  0.0000000000000E+00
239  2.3800000000000E+00  0.0000000000000E+00  0.0000000000000E+00
240  2.3900000000000E+00  0.0000000000000E+00  0.0000000000000E+00
241  2.4000000000000E+00  0.0000000000000E+00  0.0000000000000E+00
242  2.4100000000000E+00  0.0000000000000E+00  0.0000000000000E+00
243  2.4200000000000E+00  0.0000000000000E+00  0.0000000000000E+00
244  2.4300000000000E+00  0.0000000000000E+00  0.0000000000000E+00
245  2.4400000000000E+00  0.0000000000000E+00  0.0000000000000E+00
246  2.4500000000000E+00  0.0000000000000E+00  0.0000000000000E+00
247  2.4600000000000E+00  0.0000000000000E+00  0.0000000000000E+00
248  2.4700000000000E+00  0.0000000000000E+00  0.0000000000000E+00
249  2.4800000000000E+00  0.0000000000000E+00  0.0000000000000E+00
250  2.4900000000000E+00  0.0000000000000E+00  0.0000000000000E+00
251  2.5000000000000E+00  0.0000000000000E+00  0.0000000000000E+00
252  2.5100000000000E+00  0.0000000000000E+00  0.0000000000000E+00
253  2.5200000000000E+00  0.0000000000000E+00  0.0000000000000E+00
254  2.5300000000000E+00  0.0000000000000E+00  0.0000000000000E+00
255  2.5400000000000E+00  0.0000000000000E+00  0.0000000000000E+00
256  2.5500000000000E+00  0.0000000000000E+00  0.0000000000000E+00
257  2.5600000000000E+00  0.0000000000000E+00  0.0000000000000E+00
258  2.5700000000000E+00  0.0000000000000E+00  0.0000000000000E+00
259  2.5800000000000E+00  0.0000000000000E+00  0.0000000000000E+00
260  2.5900000000000E+00  0.0000000000000E+00  0.0000000000000E+00
261  2.6000000000000E+00  0.0000000000000E+00  0.0000000000000E+00
262  2.6100000000000E+00  0.0000000000000E+00  0.0000000000000E+00
263  2.6200000000000E+00  0.0000000000000E+00  0.0000000000000E+00
264  2.6300000000000E+00  0.0000000000000E+00  0.0000000000000E+00
265  2.6400000000000E+00  0.0000000000000E+00  0.0000000000000E+00
266  2.6500000000000E+00  0.0000000000000E+00  0.0000000000000E+00
267  2.6600000000000E+00  0.0000000000000E+00  0.0000000000000E+00
268  2.6700000000000E+00  0.0000000000000E+00  0.0000000000000E+00
269  2.6800000000000E+00  0.0000000000000E+00  0.0000000000000E+00
270  2.6900000000000E+00  0.0000000000000E+00  0.0000000000000E+00
271  2.7000000000000E+00  0.0000000000000E+00  0.0000000000000E+00
272  2.7100000000000E+00  0.0000000000000E+00  0.0000000000000E+00
273  2.7200000000000E+00  0.0000000000000E+00  0.0000000000000E+00
274  2.7300000000000E+00  0.0000000000000E+00  0.0000000000000E+00
275  2.7400000000000E+00  0.0000000000000E+00  0.0000000000000E+00
276  2.7500000000000E+00  0.0000000000000E+00  0.0000000000000E+00
277  2.7600000000000E+00  0.0000000000000E+00  0.0000000000000E+00
278  2.7700000000000E+00  0.0000000000000E+00  0.0000000000000E+00
279  2.7800000000000E+00  0.0000000000000E+00  0.0000000000000E+00
280  2.7900000000000E+00  0.0000000000000E+00  0.0000000000000E+00
281  2.8000000000000E+00  0.0000000000000E+00  0.0000000000000E+00
282  2.8100000000000E+00  0.0000000000000E+00  0.0000000000000E+00
283  2.8200000000000E+00  0.0000000000000E+00  0.0000000000000E+00
284  2.8300000000000E+00  0.0000000000000E+00  0.0000000000000E+00
285  2.8400000000000E+00  0.0000000000000E+00  0.0000000000000E+00
286  2.8500000000000E+00  0.0000000000000E+00  0.0000000000000E+00
287  2.8600000000000E+00  0.0000000000000E+00  0.0000000000000E+00
288  2.8700000000000E+00  0.0000000000000E+00  0.0000000000000E+00
289  2.8800000000000E+00  0.0000000000000E+00  0.0000000000000E+00
290  2.8900000000000E+00  0.0000000000000E+00  0.0000000000000E+00
291  2.9000000000000E+00  0.0000000000000E+00  0.0000000000000E+00
292  2.9100000000000E+00  0.0000000000000E+00  0.0000000000000E+00
293  2.9200000000000E+00  0.0000000000000E+00  0.0000000000000E+00
294  2.9300000000000E+00  0.0000000000000E+00  0.0000000000000E+00
295  2.9400000000000E+00  0.0000000000000E+00  0.0000000000000E+00
296  2.9500000000000E+00  0.0000000000000E+00  0.0000000000000E+00
297  2.9600000000000E+00  0.0000000000000E+00  0.0000000000000E+00
298  2.9700000000000E+00  0.0000000000000E+00  0.0000000000000E+00
299  2.9800000000000E+00  0.0000000000000E+00  0.0000000000000E+00
300  2.9900000000000E+00  0.0000000000000E+00  0.0000000000000E+00
301  3.0000000000000E+00  0.0000000000000E+00  0.0000000000000E+00
302  3.0100000000000E+00  0.0000000000000E+00  0.0000000000000E+00
303  3.0200000000000E+00  0.0000000000000E+00  0.0000000000000E+00
304  3.0300000000000E+00  0.0000000000000E+00  0.0000000000000E+00
305  3.0400000000000E+00  0.0000000000000E+00  0.0000000000000E+00
306  3.0500000000000E+00  0.0000000000000E+00  0.0000000000000E+00
307  3.0600000000000E+00  0.0000000000000E+00  0.0000000000000E+00
308  3.0700000000000E+00  0.0000000000000E+00  0.0000000000000E+00
309  3.0800000000000E+00  0.0000000000000E+00  0.0000000000000E+00
310  3.0900000000000E+00  0.0000000000000E+00  0.0000000000000E+00
311  3.1000000000000E+00  0.0000000000000E+00  0.0000000000000E+00
312  3.1100000000000E+00  0.0000000000000E+00  0.0000000000000E+00
313  3.1200000000000E+00  0.0000000000000E+00  0.0000000000000E+00
314  3.1300000000000E+00  0.0000000000000E+00  0.0000000000000E+00
315  3.1400000000000E+00  0.0000000000000E+00  0.0000000000000E+00
316  3.1500000000000E+00  0.0000000000000E+00  0.0000000000000E+00
317  3.1600000000000E+00  0.0000000000000E+00  0.0000000000000E+00
318  3.1700000000000E+00  0.0000000000000E+00  0.0000000000000E+00
319  3.1800000000000E+00  0.0000000000000E+00  0.0000000000000E+00
320  3.1900000000000E+00  0.0000000000000E+00  0.0000000000000E+00
321  3.2000000000000E+00  0.0000000000000E+00  0.0000000000000E+00
322  3.2100000000000E+00  0.0000000000000E+00  0.0000000000000E+00
323  3.2200000000000E+00  0.0000000000000E+00  0.0000000000000E+00
324  3.2300000000000E+00  0.0000000000000E+00  0.0000000000000E+00
325  3.2400000000000E+00  0.0000000000000E+00  0.0000000000000E+00
326  3.2500000000000E+00  0.0000000000000E+00  0.0000000000000E+00
327  3.2600000000000E+00  0.0000000000000E+00  0.0000000000000E+00
328  3.2700000000000E+00  0.0000000000000E+00  0.0000000000000E+00
329  3.2800000000000E+00  0.0000000000000E+00  0.0000000000000E+00
330  3.2900000000000E+00  0.0000000000000E+00  0.0000000000000E+00
331  3.3000000000000E+00  0.0000000000000E+00  0.0000000000000E+00
332  3.3100000000000E+00  0.0000000000000E+00  0.0000000000000E+00
333  3.3200000000000E+00  0.0000000000000E+00  0.0000000000000E+00
334  3.3300000000000E+00  0.0000000000000E+00  0.0000000000000E+00
335  3.3400000000000E+00  0.0000000000000E+00  0.0000000000000E+00
336  3.3500000000000E+00  0.0000000000000E+00  0.0000000000000E+00
337  3.3600000000000E+00  0.0000000000000E+00  0.0000000000000E+00
338  3.3700000000000E+00  0.0000000000000E+00  0.0000000000000E+00
339  3.3800000000000E+00  0.0000000000000E+00  0.0000000000000E+00
340  3.3900000000000E+00  0.0000000000000E+00  0.0000000000000E+00
341  3.4000000000000E+00  0.0000000000000E+00  0.0000000000000E+00
342  3.4100000000000E+00  0.0000000000000E+00  0.0000000000000E+00
343  3.4200000000000E+00  0.0000000000000E+00  0.0000000000000E+00
344  3.4300000000000E+00  0.0000000000000E+00  0.0000000000000E+00
345  3.4400000000000E+00  0.0000000000000E+00  0.0000000000000E+00
346  3.4500000000000E+00  0.0000000000000E+00  0.0000000000000E+00
347  3.4600000000000E+00  0.0000000000000E+00  0.0000000000000E+00
348  3.4700000000000E+00  0.0000000000000E+00  0.0000000000000E+00
349  3.4800000000000E+00  0.0000000000000E+00  0.0000000000000E+00
350  3.4900000000000E+00  0.0000000000000E+00  0.0000000000000E+00
351  3.5000000000000E+00  0.0000000000000E+00  0.0000000000000E+00
352  3.5100000000000E+00  0.0000000000000E+00  0.0000000000000E+00
353  3.5200000000000E+00  0.0000000000000E+00  0.0000000000000E+00
354  3.5300000000000E+00  0.0000000000000E+00  0.0000000000000E+00
355  3.5400000000000E+00  0.0000000000000E+00  0.0000000000000E+00
356  3.5500000000000E+00  0.0000000000000E+00  0.0000000000000E+00
357  3.5600000000000E+00  0.0000000000000E+00  0.0000000000000E+00
358  3.5700000000000E+00  0.0000000000000E+00  0.0000000000000E+00
359  3.5800000000000E+00  0.0000000000000E+00  0.0000000000000E+00
360  3.5900000000000E+00  0.0000000000000E+00  0.0000000000000E+00
361  3.6000000000000E+00  0.0000000000000E+00  0.0000000000000E+00
362  3.6100000000000E+00  0.0000000000000E+00  0.0000000000000E+00
363  3.6200000000000E+00  0.0000000000000E+00  0.0000000000000E+00
364  3.6300000000000E+00  0.0000000000000E+00  0.0000000000000E+00
365  3.6400000000000E+00  0.0000000000000E+00  0.0000000000000E+00
366  3.6500000000000E+00  0.0000000000000E+00  0.0000000000000E+00
367  3.6600000000000E+00  0.0000000000000E+00  0.0000000000000E+00
368  3.6700000000000E+00  0.0000000000000E+00  0.0000000000000E+00
369  3.6800000000000E+00  0.0000000000000E+00  0.0000000000000E+00
370  3.6900000000000E+00  0.0000000000000E+00  0.0000000000000E+00
371  3.7000000000000E+00  0.0000000000000E+00  0.0000000000000E+00
372  3.7100000000000E+00  0.0000000000000E+00  0.0000000000000E+00
373  3.7200000000000E+00  0.0000000000000E+00  0.0000000000000E+00
374  3.7300000000000E+00  0.0000000000000E+00  0.0000000000000E+00
375  3.7400000000000E+00  0.0000000000000E+00  0.0000000000000E+00
376  3.7500000000000E+00  0.0000000000000E+00  0.0000000000000E+00
377  3.7600000000000E+00  0.0000000000000E+00  0.0000000000000E+00
378  3.7700000000000E+00  0.0000000000000E+00  0.0000000000000E+00
379  3.7800000000000E+00  0.0000000000000E+00  0.0000000000000E+00
380  3.7900000000000E+00  0.0000000000000E+00  0.0000000000000E+00
381  3.8000000000000E+00  0.0000000000000E+00  0.0000000000000E+00
382  3.8100000000000E+00  0.0000000000000E+00  0.0000000000000E+00
383  3.8200000000000E+00  0.0000000000000E+00  0.0000000000000E+00
384  3.8300000000000E+00  0.0000000000000E+00  0.0000000000000E+00
385  3.8400000000000E+00  0.0000000000000E+00  0.0000000000000E+00
386  3.8500000000000E+00  0.0000000000000E+00  0.0000000000000E+00
387  3.8600000000000E+00  0.0000000000000E+00  0.0000000000000E+00
388  3.8700000000000E+00  0.0000000000000E+00  0.0000000000000E+00
389  3.8800000000000E+00  0.0000000000000E+00  0.0000000000000E+00
390  3.8900000000000E+00  0.0000000000000E+00  0.0000000000000E+00
391  3.9000000000000E+00  0.0000000000000E+00  0.0000000000000E+00
392  3.9100000000000E+00  0.0000000000000E+00  0.0000000000000E+00
393  3.9200000000000E+00  0.0000000000000E+00  0.0000000000000E+00
394  3.9300000000000E+00  0.0000000000000E+00  0.0000000000000E+00
395  3.9400000000000E+00  0.0000000000000E+00  0.0000000000000E+00
396  3.9500000000000E+00  0.0000000000000E+00  0.0000000000000E+00
397  3.9600000000000E+00  0.0000000000000E+00  0.0000000000000E+00
398  3.9700000000000E+00  0.0000000000000E+00  0.0000000000000E+00
399  3.9800000000000E+00  0.0000000000000E+00  0.0000000000000E+00
400  3.9900000000000E+00  0.0000000000000E+00  0.0000000000000E+00
401  4.0000000000000E+00  0.0000000000000E+00  0.0000000000000E+00
402  4.0100000000000E+00  0.0000000000000E+00  0.0000000000000E+00
403  4.0200000000000E+00  0.0000000000000E+00  0.0000000000000E+00
404  4.0300000000000E+00  0.0000000000000E+00  0.0000000000000E+00
405  4.0400000000000E+00  0.0000000000000E+00  0.0000000000000E+00
406  4.0500000000000E+00  0.0000000000000E+00  0.0000000000000E+00
407  4.0600000000000E+00  0.0000000000000E+00  0.0000000000000E+00
408  4.0700000000000E+00  0.0000000000000E+00  0.0000000000000E+00
409  4.0800000000000E+00  0.0000000000000E+00  0.0000000000000E+00
410  4.0900000000000E+00  0.0000000000000E+00  0.0000000000000E+00
411  4.1000000000000E+00  0.0000000000000E+00  0.0000000000000E+00
412  4.1100000000000E+00  0.0000000000000E+00  0.0000000000000E+00
413  4.1200000000000E+00  0.0000000000000E+00  0.0000000000000E+00
414  4.1300000000000E+00  0.0000000000000E+00  0.0000000000000E+00
415  4.1400000000000E+00  0.0000000000000E+00  0.0000000000000E+00
416  4.1500000000000E+00  0.0000000000000E+00  0.0000000000000E+00
417  4.1600000000000E+00  0.0000000000000E+00  0.0000000000000E+00
418  4.1700000000000E+00  0.0000000000000E+00  0.0000000000000E+00
419  4.1800000000000E+00  0.0000000000000E+00  0.0000000000000E+00
420  4.1900000000000E+00  0.0000000000000E+00  0.0000000000000E+00
421  4.2000000000000E+00  0.0000000000000E+00  0.0000000000000E+00
422  4.2100000000000E+00  0.0000000000000E+00  0.0000000000000E+00
423  4.2200000000000E+00  0.0000000000000E+00  0.0000000000000E+00
424  4.2300000000000E+00  0.0000000000000E+00  0.0000000000000E+00
425  4.2400000000000E+00  0.0000000000000E+00  0.0000000000000E+00
426  4.2500000000000E+00  0.0000000000000E+00  0.0000000000000E+00
427  4.2600000000000E+00  0.0000000000000E+00  0.0000000000000E+00
428  4.2700000000000E+00  0.0000000000000E+00  0.0000000000000E+00
429  4.2800000000000E+00  0.0000000000000E+00  0.0000000000000E+00
430  4.2900000000000E+00  0.0000000000000E+00  0.0000000000000E+00
431  4.3000000000000E+00  0.0000000000000E+00  0.0000000000000E+00
432  4.3100000000000E+00  0.0000000000000E+00  0.0000000000000E+00
433  4.3200000000000E+00  0.0000000000000E+00  0.0000000000000E+00
434  4.3300000000000E+00  0.0000000000000E+00  0.0000000000000E+00
435  4.3400000000000E+00  0.0000000000000E+00  0.0000000000000E+00
436  4.3500000000000E+00  0.0000000000000E+00  0.0000000000000E+00
437  4.3600000000000E+00  0.0000000000000E+00  0.0000000000000E+00
438  4.3700000000000E+00  0.0000000000000E+00  0.0000000000000E+00
439  4.3800000000000E+00  0.0000000000000E+00  0.0000000000000E+00
440  4.3900000000000E+00  0.0000000000000E+00  0.0000000000000E+00
441  4.4000000000000E+00  0.0000000000000E+00  0.0000000000000E+00
442  4.4100000000000E+00  0.0000000000000E+00  0.0000000000000E+00
443  4.4200000000000E+00  0.0000000000000E+00  0.0000000000000E+00