S     ONCVPSP-3.3.0  r_core=   1.45376   1.45376   1.61851
16.0000      6.0000      180416    zatom,zion,pspd
8      11   2     4   600     0    pspcod,pspxc,lmax,lloc,mmax,r2well
5.99000000  6.00000000  0.00000000    rchrg fchrg qchrg
2     3     2     0    nproj
3     1           extension_switch
3     3     0    nprojso
0                         5.7433589324258E-01  6.7635967115778E+00
1  0.0000000000000E+00  3.3064403603955E-08 -8.0586861628262E-09
2  1.0000000000000E-02 -4.9315882939720E-02  5.0241838045752E-02
3  2.0000000000000E-02 -9.7680240828152E-02  1.0022305157155E-01
4  3.0000000000000E-02 -1.4416171853707E-01  1.4968793472505E-01
5  4.0000000000000E-02 -1.8786887757689E-01  1.9839051597633E-01
6  5.0000000000000E-02 -2.2796910509780E-01  2.4609916986770E-01
7  6.0000000000000E-02 -2.6370628789474E-01  2.9260092816480E-01
8  7.0000000000000E-02 -2.9441687953615E-01  3.3770539990615E-01
9  8.0000000000000E-02 -3.1954402180079E-01  3.8124821790743E-01
10  9.0000000000000E-02 -3.3864942166525E-01  4.2309393903929E-01
11  1.0000000000000E-01 -3.5142273132630E-01  4.6313833686783E-01
12  1.1000000000000E-01 -3.5768823023034E-01  5.0131003779439E-01
13  1.2000000000000E-01 -3.5740866377417E-01  5.3757146540357E-01
14  1.3000000000000E-01 -3.5068615210647E-01  5.7191907204842E-01
15  1.4000000000000E-01 -3.3776014310616E-01  6.0438285147954E-01
16  1.5000000000000E-01 -3.1900244490763E-01  6.3502514125923E-01
17  1.6000000000000E-01 -2.9490943403773E-01  6.6393873848901E-01
18  1.7000000000000E-01 -2.6609159408542E-01  6.9124436671608E-01
19  1.8000000000000E-01 -2.3326059564198E-01  7.1708754547978E-01
20  1.9000000000000E-01 -1.9721417987985E-01  7.4163492653222E-01
21  2.0000000000000E-01 -1.5881915452461E-01  7.6507017206065E-01
22  2.1000000000000E-01 -1.1899285115404E-01  7.8758946001817E-01
23  2.2000000000000E-01 -7.8683425900108E-02  8.0939670973118E-01
24  2.3000000000000E-01 -3.8849411035831E-02  8.3069862712714E-01
25  2.4000000000000E-01 -4.3894206043426E-04  8.5169967308242E-01
26  2.5000000000000E-01  3.5630906622308E-02  8.7259706043737E-01
27  2.6000000000000E-01  6.8494244707748E-02  8.9357588511360E-01
28  2.7000000000000E-01  9.7355524195932E-02  9.1480449449305E-01
29  2.8000000000000E-01  1.2150732728221E-01  9.3643019181670E-01
30  2.9000000000000E-01  1.4034640476569E-01  9.5857536891508E-01
31  3.0000000000000E-01  1.5338762004117E-01  9.8133415121478E-01
32  3.1000000000000E-01  1.6027549519303E-01  1.0047696288385E+00
33  3.2000000000000E-01  1.6079310356920E-01  1.0289117359280E+00
34  3.3000000000000E-01  1.5486810653708E-01  1.0537558272991E+00
35  3.4000000000000E-01  1.4257578985181E-01  1.0792619874495E+00
36  3.5000000000000E-01  1.2413901604781E-01  1.1053550920539E+00
37  3.6000000000000E-01  9.9925072279536E-02  1.1319256267072E+00
38  3.7000000000000E-01  7.0439456810900E-02  1.1588312521170E+00
39  3.8000000000000E-01  3.6316710606475E-02  1.1858990895171E+00
40  3.9000000000000E-01 -1.6915380879311E-03  1.2129286850895E+00
41  4.0000000000000E-01 -4.2731089909256E-02  1.2396955979470E+00
42  4.1000000000000E-01 -8.5861970912241E-02  1.2659555430389E+00
43  4.2000000000000E-01 -1.3007718037313E-01  1.2914490084628E+00
44  4.3000000000000E-01 -1.7432301843023E-01  1.3159062563527E+00
45  4.4000000000000E-01 -2.1752058709132E-01  1.3390526079807E+00
46  4.5000000000000E-01 -2.5858803114110E-01  1.3606139071397E+00
47  4.6000000000000E-01 -2.9646306711980E-01  1.3803220514104E+00
48  4.7000000000000E-01 -3.3012533923990E-01  1.3979204786684E+00
49  4.8000000000000E-01 -3.5861814110395E-01  1.4131694962004E+00
50  4.9000000000000E-01 -3.8106905144066E-01  1.4258513421061E+00
51  5.0000000000000E-01 -3.9670905066374E-01  1.4357748732120E+00
52  5.1000000000000E-01 -4.0488971255021E-01  1.4427797804520E+00
53  5.2000000000000E-01 -4.0509810124731E-01  1.4467402414522E+00
54  5.3000000000000E-01 -3.9696904749468E-01  1.4475679307266E+00
55  5.4000000000000E-01 -3.8029452851807E-01  1.4452143202506E+00
56  5.5000000000000E-01 -3.5502993257523E-01  1.4396722169797E+00
57  5.6000000000000E-01 -3.2129705059840E-01  1.4309764988945E+00
58  5.7000000000000E-01 -2.7938370227170E-01  1.4192040269942E+00
59  5.8000000000000E-01 -2.2973997152839E-01  1.4044727271766E+00
60  5.9000000000000E-01 -1.7297109462200E-01  1.3869398525812E+00
61  6.0000000000000E-01 -1.0982711238195E-01  1.3667994536788E+00
62  6.1000000000000E-01 -4.1189464344959E-02  1.3442790995168E+00
63  6.2000000000000E-01  3.1945233835846E-02  1.3196359090732E+00
64  6.3000000000000E-01  1.0848392947933E-01  1.2931519660241E+00
65  6.4000000000000E-01  1.8725803463933E-01  1.2651292032991E+00
66  6.5000000000000E-01  2.6704608981752E-01  1.2358838552417E+00
67  6.6000000000000E-01  3.4659774983323E-01  1.2057405847098E+00
68  6.7000000000000E-01  4.2465862121517E-01  1.1750263999739E+00
69  6.8000000000000E-01  4.9999545898160E-01  1.1440644815006E+00
70  6.9000000000000E-01  5.7142121880687E-01  1.1131680415952E+00
71  7.0000000000000E-01  6.3781945860751E-01  1.0826343403478E+00
72  7.1000000000000E-01  6.9816759180695E-01  1.0527389793026E+00
73  7.2000000000000E-01  7.5155851269731E-01  1.0237305898349E+00
74  7.3000000000000E-01  7.9722014228248E-01  9.9582602638003E-01
75  7.4000000000000E-01  8.3453248005080E-01  9.6920616561052E-01
76  7.5000000000000E-01  8.6304179290912E-01  9.4401240147561E-01
77  7.6000000000000E-01  8.8247162603383E-01  9.2034391295380E-01
78  7.7000000000000E-01  8.9273038053072E-01  8.9825576669183E-01
79  7.8000000000000E-01  8.9391526864737E-01  8.7775790063482E-01
80  7.9000000000000E-01  8.8631252742801E-01  8.5881501763946E-01
81  8.0000000000000E-01  8.7039384483901E-01  8.4134740022138E-01
82  8.1000000000000E-01  8.4680902709364E-01  8.2523263936994E-01
83  8.2000000000000E-01  8.1637501070412E-01  8.1030825212514E-01
84  8.3000000000000E-01  7.8006139620330E-01  7.9637514471368E-01
85  8.4000000000000E-01  7.3897275109338E-01  7.8320186083131E-01
86  8.5000000000000E-01  6.9432799581559E-01  7.7052953851938E-01
87  8.6000000000000E-01  6.4743724739806E-01  7.5807748425962E-01
88  8.7000000000000E-01  5.9967654924815E-01  7.4554925981143E-01
89  8.8000000000000E-01  5.5246096152665E-01  7.3263916613159E-01
90  8.9000000000000E-01  5.0721652356854E-01  7.1903899971701E-01
91  9.0000000000000E-01  4.6535162717149E-01  7.0444495007352E-01
92  9.1000000000000E-01  4.2822835653151E-01  6.8856450291539E-01
93  9.2000000000000E-01  3.9713435687868E-01  6.7112321220988E-01
94  9.3000000000000E-01  3.7325578917413E-01  6.5187120536730E-01
95  9.4000000000000E-01  3.5765191260083E-01  6.3058928973165E-01
96  9.5000000000000E-01  3.5123181023589E-01  6.0709453499609E-01
97  9.6000000000000E-01  3.5473373666140E-01  5.8124521514463E-01
98  9.7000000000000E-01  3.6870751999289E-01  5.5294500485151E-01
99  9.8000000000000E-01  3.9350039582555E-01  5.2214633871918E-01
100  9.9000000000000E-01  4.2924658719096E-01  4.8885285723983E-01
101  1.0000000000000E+00  4.7586087558990E-01  4.5312088023553E-01
102  1.0100000000000E+00  5.3303633395547E-01  4.1505986666343E-01
103  1.0200000000000E+00  6.0024631159326E-01  3.7483183940839E-01
104  1.0300000000000E+00  6.7675068178515E-01  3.3264977306142E-01
105  1.0400000000000E+00  7.6160628006685E-01  2.8877496286298E-01
106  1.0500000000000E+00  8.5368137890882E-01  2.4351341306585E-01
107  1.0600000000000E+00  9.5167396706441E-01  1.9721130186802E-01
108  1.0700000000000E+00  1.0541335271395E+00  1.5024959828203E-01
109  1.0800000000000E+00  1.1594859314960E+00  1.0303792420470E-01
110  1.0900000000000E+00  1.2660610174638E+00  5.6007769354002E-02
111  1.1000000000000E+00  1.3721223446603E+00  9.6051808967907E-03
112  1.1100000000000E+00  1.4758985952594E+00 -3.5716940210794E-02
113  1.1200000000000E+00  1.5756160372586E+00 -7.9506794244897E-02
114  1.1300000000000E+00  1.6695314476010E+00 -1.2132174157233E-01
115  1.1400000000000E+00  1.7559648794003E+00 -1.6073631480509E-01
116  1.1500000000000E+00  1.8333316552734E+00 -1.9735003322835E-01
117  1.1600000000000E+00  1.9001729742596E+00 -2.3079486988495E-01
118  1.1700000000000E+00  1.9551845452950E+00 -2.6074222800423E-01
119  1.1800000000000E+00  1.9972426976748E+00 -2.8690929268468E-01
120  1.1900000000000E+00  2.0254274475704E+00 -3.0906463078994E-01
121  1.2000000000000E+00  2.0390420646800E+00 -3.2703292798668E-01
122  1.2100000000000E+00  2.0376287472335E+00 -3.4069876758396E-01
123  1.2200000000000E+00  2.0209800828747E+00 -3.5000937282429E-01
124  1.2300000000000E+00  1.9891460263980E+00 -3.5497624738558E-01
125  1.2400000000000E+00  1.9424362470830E+00 -3.5567567868160E-01
126  1.2500000000000E+00  1.8814177754469E+00 -3.5224808741642E-01
127  1.2600000000000E+00  1.8069079100688E+00 -3.4489621440722E-01
128  1.2700000000000E+00  1.7199625205650E+00 -3.3388217862976E-01
129  1.2800000000000E+00  1.6218599322279E+00 -3.1952345252460E-01
130  1.2900000000000E+00  1.5140806037746E+00 -3.0218780695950E-01
131  1.3000000000000E+00  1.3982829948354E+00 -2.8228732353965E-01
132  1.3100000000000E+00  1.2762760304870E+00 -2.6027157454952E-01
133  1.3200000000000E+00  1.1499886016344E+00 -2.3662007853111E-01
134  1.3300000000000E+00  1.0214366941005E+00 -2.1183417714339E-01
135  1.3400000000000E+00  8.9268869605929E-01 -1.8642846836723E-01
136  1.3500000000000E+00  7.6582950475879E-01 -1.6092194856526E-01
137  1.3600000000000E+00  6.4292408848215E-01 -1.3582902501764E-01
138  1.3700000000000E+00  5.2598116068707E-01 -1.1165055614511E-01
139  1.3800000000000E+00  4.1691755624411E-01 -8.8865078963789E-02
140  1.3900000000000E+00  3.1752427590236E-01 -6.7920405936605E-02
141  1.4000000000000E+00  2.2943371735296E-01 -4.9225642763256E-02
142  1.4100000000000E+00  1.5414162991535E-01 -3.3154960323640E-02
143  1.4200000000000E+00  9.2702411793150E-02 -1.9980626583703E-02
144  1.4300000000000E+00  4.6021962641924E-02 -9.9353650511888E-03
145  1.4400000000000E+00  1.6223159753285E-02 -3.5070564898613E-03
146  1.4500000000000E+00  2.3014119650813E-03 -4.9831260732703E-04
147  1.4600000000000E+00 -1.1486102760151E-03  2.4858132192358E-04
148  1.4700000000000E+00 -1.7055542106656E-04  3.6945550048576E-05
149  1.4800000000000E+00  3.6667202820340E-04 -7.9345446331265E-05
150  1.4900000000000E+00 -1.5566956723572E-05  3.3618327264138E-06
151  1.5000000000000E+00 -5.9537356417060E-05  1.2858163682843E-05
152  1.5100000000000E+00 -2.0650508014845E-07  4.5082395961814E-08
153  1.5200000000000E+00 -2.4276158340825E-07  5.2997600929044E-08
154  1.5300000000000E+00  0.0000000000000E+00  0.0000000000000E+00
155  1.5400000000000E+00  0.0000000000000E+00  0.0000000000000E+00
156  1.5500000000000E+00  0.0000000000000E+00  0.0000000000000E+00
157  1.5600000000000E+00  0.0000000000000E+00  0.0000000000000E+00
158  1.5700000000000E+00  0.0000000000000E+00  0.0000000000000E+00
159  1.5800000000000E+00  0.0000000000000E+00  0.0000000000000E+00
160  1.5900000000000E+00  0.0000000000000E+00  0.0000000000000E+00
161  1.6000000000000E+00  0.0000000000000E+00  0.0000000000000E+00
162  1.6100000000000E+00  0.0000000000000E+00  0.0000000000000E+00
163  1.6200000000000E+00  0.0000000000000E+00  0.0000000000000E+00
164  1.6300000000000E+00  0.0000000000000E+00  0.0000000000000E+00
165  1.6400000000000E+00  0.0000000000000E+00  0.0000000000000E+00
166  1.6500000000000E+00  0.0000000000000E+00  0.0000000000000E+00
167  1.6600000000000E+00  0.0000000000000E+00  0.0000000000000E+00
168  1.6700000000000E+00  0.0000000000000E+00  0.0000000000000E+00
169  1.6800000000000E+00  0.0000000000000E+00  0.0000000000000E+00
170  1.6900000000000E+00  0.0000000000000E+00  0.0000000000000E+00
171  1.7000000000000E+00  0.0000000000000E+00  0.0000000000000E+00
172  1.7100000000000E+00  0.0000000000000E+00  0.0000000000000E+00
173  1.7200000000000E+00  0.0000000000000E+00  0.0000000000000E+00
174  1.7300000000000E+00  0.0000000000000E+00  0.0000000000000E+00
175  1.7400000000000E+00  0.0000000000000E+00  0.0000000000000E+00
176  1.7500000000000E+00  0.0000000000000E+00  0.0000000000000E+00
177  1.7600000000000E+00  0.0000000000000E+00  0.0000000000000E+00
178  1.7700000000000E+00  0.0000000000000E+00  0.0000000000000E+00
179  1.7800000000000E+00  0.0000000000000E+00  0.0000000000000E+00
180  1.7900000000000E+00  0.0000000000000E+00  0.0000000000000E+00
181  1.8000000000000E+00  0.0000000000000E+00  0.0000000000000E+00
182  1.8100000000000E+00  0.0000000000000E+00  0.0000000000000E+00
183  1.8200000000000E+00  0.0000000000000E+00  0.0000000000000E+00
184  1.8300000000000E+00  0.0000000000000E+00  0.0000000000000E+00
185  1.8400000000000E+00  0.0000000000000E+00  0.0000000000000E+00
186  1.8500000000000E+00  0.0000000000000E+00  0.0000000000000E+00
187  1.8600000000000E+00  0.0000000000000E+00  0.0000000000000E+00
188  1.8700000000000E+00  0.0000000000000E+00  0.0000000000000E+00
189  1.8800000000000E+00  0.0000000000000E+00  0.0000000000000E+00
190  1.8900000000000E+00  0.0000000000000E+00  0.0000000000000E+00
191  1.9000000000000E+00  0.0000000000000E+00  0.0000000000000E+00
192  1.9100000000000E+00  0.0000000000000E+00  0.0000000000000E+00
193  1.9200000000000E+00  0.0000000000000E+00  0.0000000000000E+00
194  1.9300000000000E+00  0.0000000000000E+00  0.0000000000000E+00
195  1.9400000000000E+00  0.0000000000000E+00  0.0000000000000E+00
196  1.9500000000000E+00  0.0000000000000E+00  0.0000000000000E+00
197  1.9600000000000E+00  0.0000000000000E+00  0.0000000000000E+00
198  1.9700000000000E+00  0.0000000000000E+00  0.0000000000000E+00
199  1.9800000000000E+00  0.0000000000000E+00  0.0000000000000E+00
200  1.9900000000000E+00  0.0000000000000E+00  0.0000000000000E+00
201  2.0000000000000E+00  0.0000000000000E+00  0.0000000000000E+00
202  2.0100000000000E+00  0.0000000000000E+00  0.0000000000000E+00
203  2.0200000000000E+00  0.0000000000000E+00  0.0000000000000E+00
204  2.0300000000000E+00  0.0000000000000E+00  0.0000000000000E+00
205  2.0400000000000E+00  0.0000000000000E+00  0.0000000000000E+00
206  2.0500000000000E+00  0.0000000000000E+00  0.0000000000000E+00
207  2.0600000000000E+00  0.0000000000000E+00  0.0000000000000E+00
208  2.0700000000000E+00  0.0000000000000E+00  0.0000000000000E+00
209  2.0800000000000E+00  0.0000000000000E+00  0.0000000000000E+00
210  2.0900000000000E+00  0.0000000000000E+00  0.0000000000000E+00
211  2.1000000000000E+00  0.0000000000000E+00  0.0000000000000E+00
212  2.1100000000000E+00  0.0000000000000E+00  0.0000000000000E+00
213  2.1200000000000E+00  0.0000000000000E+00  0.0000000000000E+00
214  2.1300000000000E+00  0.0000000000000E+00  0.0000000000000E+00
215  2.1400000000000E+00  0.0000000000000E+00  0.0000000000000E+00
216  2.1500000000000E+00  0.0000000000000E+00  0.0000000000000E+00
217  2.1600000000000E+00  0.0000000000000E+00  0.0000000000000E+00
218  2.1700000000000E+00  0.0000000000000E+00  0.0000000000000E+00
219  2.1800000000000E+00  0.0000000000000E+00  0.0000000000000E+00
220  2.1900000000000E+00  0.0000000000000E+00  0.0000000000000E+00
221  2.2000000000000E+00  0.0000000000000E+00  0.0000000000000E+00
222  2.2100000000000E+00  0.0000000000000E+00  0.0000000000000E+00
223  2.2200000000000E+00  0.0000000000000E+00  0.0000000000000E+00
224  2.2300000000000E+00  0.0000000000000E+00  0.0000000000000E+00
225  2.2400000000000E+00  0.0000000000000E+00  0.0000000000000E+00
226  2.2500000000000E+00  0.0000000000000E+00  0.0000000000000E+00
227  2.2600000000000E+00  0.0000000000000E+00  0.0000000000000E+00
228  2.2700000000000E+00  0.0000000000000E+00  0.0000000000000E+00
229  2.2800000000000E+00  0.0000000000000E+00  0.0000000000000E+00
230  2.2900000000000E+00  0.0000000000000E+00  0.0000000000000E+00
231  2.3000000000000E+00  0.0000000000000E+00  0.0000000000000E+00
232  2.3100000000000E+00  0.0000000000000E+00  0.0000000000000E+00
233  2.3200000000000E+00  0.0000000000000E+00  0.0000000000000E+00
234  2.3300000000000E+00  0.0000000000000E+00  0.0000000000000E+00
235  2.3400000000000E+00  0.0000000000000E+00  0.0000000000000E+00
236  2.3500000000000E+00  0.0000000000000E+00  0.0000000000000E+00
237  2.3600000000000E+00  0.0000000000000E+00  0.0000000000000E+00
238  2.3700000000000E+00  0.0000000000000E+00  0.0000000000000E+00
239  2.3800000000000E+00  0.0000000000000E+00  0.0000000000000E+00
240  2.3900000000000E+00  0.0000000000000E+00  0.0000000000000E+00
241  2.4000000000000E+00  0.0000000000000E+00  0.0000000000000E+00
242  2.4100000000000E+00  0.0000000000000E+00  0.0000000000000E+00
243  2.4200000000000E+00  0.0000000000000E+00  0.0000000000000E+00
244  2.4300000000000E+00  0.0000000000000E+00  0.0000000000000E+00
245  2.4400000000000E+00  0.0000000000000E+00  0.0000000000000E+00
246  2.4500000000000E+00  0.0000000000000E+00  0.0000000000000E+00
247  2.4600000000000E+00  0.0000000000000E+00  0.0000000000000E+00
248  2.4700000000000E+00  0.0000000000000E+00  0.0000000000000E+00
249  2.4800000000000E+00  0.0000000000000E+00  0.0000000000000E+00
250  2.4900000000000E+00  0.0000000000000E+00  0.0000000000000E+00
251  2.5000000000000E+00  0.0000000000000E+00  0.0000000000000E+00
252  2.5100000000000E+00  0.0000000000000E+00  0.0000000000000E+00
253  2.5200000000000E+00  0.0000000000000E+00  0.0000000000000E+00
254  2.5300000000000E+00  0.0000000000000E+00  0.0000000000000E+00
255  2.5400000000000E+00  0.0000000000000E+00  0.0000000000000E+00
256  2.5500000000000E+00  0.0000000000000E+00  0.0000000000000E+00
257  2.5600000000000E+00  0.0000000000000E+00  0.0000000000000E+00
258  2.5700000000000E+00  0.0000000000000E+00  0.0000000000000E+00
259  2.5800000000000E+00  0.0000000000000E+00  0.0000000000000E+00
260  2.5900000000000E+00  0.0000000000000E+00  0.0000000000000E+00
261  2.6000000000000E+00  0.0000000000000E+00  0.0000000000000E+00
262  2.6100000000000E+00  0.0000000000000E+00  0.0000000000000E+00
263  2.6200000000000E+00  0.0000000000000E+00  0.0000000000000E+00
264  2.6300000000000E+00  0.0000000000000E+00  0.0000000000000E+00
265  2.6400000000000E+00  0.0000000000000E+00  0.0000000000000E+00
266  2.6500000000000E+00  0.0000000000000E+00  0.0000000000000E+00
267  2.6600000000000E+00  0.0000000000000E+00  0.0000000000000E+00
268  2.6700000000000E+00  0.0000000000000E+00  0.0000000000000E+00
269  2.6800000000000E+00  0.0000000000000E+00  0.0000000000000E+00
270  2.6900000000000E+00  0.0000000000000E+00  0.0000000000000E+00
271  2.7000000000000E+00  0.0000000000000E+00  0.0000000000000E+00
272  2.7100000000000E+00  0.0000000000000E+00  0.0000000000000E+00
273  2.7200000000000E+00  0.0000000000000E+00  0.0000000000000E+00
274  2.7300000000000E+00  0.0000000000000E+00  0.0000000000000E+00
275  2.7400000000000E+00  0.0000000000000E+00  0.0000000000000E+00
276  2.7500000000000E+00  0.0000000000000E+00  0.0000000000000E+00
277  2.7600000000000E+00  0.0000000000000E+00  0.0000000000000E+00
278  2.7700000000000E+00  0.0000000000000E+00  0.0000000000000E+00
279  2.7800000000000E+00  0.0000000000000E+00  0.0000000000000E+00
280  2.7900000000000E+00  0.0000000000000E+00  0.0000000000000E+00
281  2.8000000000000E+00  0.0000000000000E+00  0.0000000000000E+00
282  2.8100000000000E+00  0.0000000000000E+00  0.0000000000000E+00
283  2.8200000000000E+00  0.0000000000000E+00  0.0000000000000E+00
284  2.8300000000000E+00  0.0000000000000E+00  0.0000000000000E+00
285  2.8400000000000E+00  0.0000000000000E+00  0.0000000000000E+00
286  2.8500000000000E+00  0.0000000000000E+00  0.0000000000000E+00
287  2.8600000000000E+00  0.0000000000000E+00  0.0000000000000E+00
288  2.8700000000000E+00  0.0000000000000E+00  0.0000000000000E+00
289  2.8800000000000E+00  0.0000000000000E+00  0.0000000000000E+00
290  2.8900000000000E+00  0.0000000000000E+00  0.0000000000000E+00
291  2.9000000000000E+00  0.0000000000000E+00  0.0000000000000E+00
292  2.9100000000000E+00  0.0000000000000E+00  0.0000000000000E+00
293  2.9200000000000E+00  0.0000000000000E+00  0.0000000000000E+00
294  2.9300000000000E+00  0.0000000000000E+00  0.0000000000000E+00
295  2.9400000000000E+00  0.0000000000000E+00  0.0000000000000E+00
296  2.9500000000000E+00  0.0000000000000E+00  0.0000000000000E+00
297  2.9600000000000E+00  0.0000000000000E+00  0.0000000000000E+00
298  2.9700000000000E+00  0.0000000000000E+00  0.0000000000000E+00
299  2.9800000000000E+00  0.0000000000000E+00  0.0000000000000E+00
300  2.9900000000000E+00  0.0000000000000E+00  0.0000000000000E+00
301  3.0000000000000E+00  0.0000000000000E+00  0.0000000000000E+00
302  3.0100000000000E+00  0.0000000000000E+00  0.0000000000000E+00
303  3.0200000000000E+00  0.0000000000000E+00  0.0000000000000E+00
304  3.0300000000000E+00  0.0000000000000E+00  0.0000000000000E+00
305  3.0400000000000E+00  0.0000000000000E+00  0.0000000000000E+00
306  3.0500000000000E+00  0.0000000000000E+00  0.0000000000000E+00
307  3.0600000000000E+00  0.0000000000000E+00  0.0000000000000E+00
308  3.0700000000000E+00  0.0000000000000E+00  0.0000000000000E+00
309  3.0800000000000E+00  0.0000000000000E+00  0.0000000000000E+00
310  3.0900000000000E+00  0.0000000000000E+00  0.0000000000000E+00
311  3.1000000000000E+00  0.0000000000000E+00  0.0000000000000E+00
312  3.1100000000000E+00  0.0000000000000E+00  0.0000000000000E+00
313  3.1200000000000E+00  0.0000000000000E+00  0.0000000000000E+00
314  3.1300000000000E+00  0.0000000000000E+00  0.0000000000000E+00
315  3.1400000000000E+00  0.0000000000000E+00  0.0000000000000E+00
316  3.1500000000000E+00  0.0000000000000E+00  0.0000000000000E+00
317  3.1600000000000E+00  0.0000000000000E+00  0.0000000000000E+00
318  3.1700000000000E+00  0.0000000000000E+00  0.0000000000000E+00
319  3.1800000000000E+00  0.0000000000000E+00  0.0000000000000E+00
320  3.1900000000000E+00  0.0000000000000E+00  0.0000000000000E+00
321  3.2000000000000E+00  0.0000000000000E+00  0.0000000000000E+00
322  3.2100000000000E+00  0.0000000000000E+00  0.0000000000000E+00
323  3.2200000000000E+00  0.0000000000000E+00  0.0000000000000E+00
324  3.2300000000000E+00  0.0000000000000E+00  0.0000000000000E+00
325  3.2400000000000E+00  0.0000000000000E+00  0.0000000000000E+00
326  3.2500000000000E+00  0.0000000000000E+00  0.0000000000000E+00
327  3.2600000000000E+00  0.0000000000000E+00  0.0000000000000E+00
328  3.2700000000000E+00  0.0000000000000E+00  0.0000000000000E+00
329  3.2800000000000E+00  0.0000000000000E+00  0.0000000000000E+00
330  3.2900000000000E+00  0.0000000000000E+00  0.0000000000000E+00
331  3.3000000000000E+00  0.0000000000000E+00  0.0000000000000E+00
332  3.3100000000000E+00  0.0000000000000E+00  0.0000000000000E+00
333  3.3200000000000E+00  0.0000000000000E+00  0.0000000000000E+00
334  3.3300000000000E+00  0.0000000000000E+00  0.0000000000000E+00
335  3.3400000000000E+00  0.0000000000000E+00  0.0000000000000E+00
336  3.3500000000000E+00  0.0000000000000E+00  0.0000000000000E+00
337  3.3600000000000E+00  0.0000000000000E+00  0.0000000000000E+00
338  3.3700000000000E+00  0.0000000000000E+00  0.0000000000000E+00
339  3.3800000000000E+00  0.0000000000000E+00  0.0000000000000E+00
340  3.3900000000000E+00  0.0000000000000E+00  0.0000000000000E+00
341  3.4000000000000E+00  0.0000000000000E+00  0.0000000000000E+00
342  3.4100000000000E+00  0.0000000000000E+00  0.0000000000000E+00
343  3.4200000000000E+00  0.0000000000000E+00  0.0000000000000E+00
344  3.4300000000000E+00  0.0000000000000E+00  0.0000000000000E+00
345  3.4400000000000E+00  0.0000000000000E+00  0.0000000000000E+00
346  3.4500000000000E+00  0.0000000000000E+00  0.0000000000000E+00
347  3.4600000000000E+00  0.0000000000000E+00  0.0000000000000E+00
348  3.4700000000000E+00  0.0000000000000E+00  0.0000000000000E+00
349  3.4800000000000E+00  0.0000000000000E+00  0.0000000000000E+00
350  3.4900000000000E+00  0.0000000000000E+00  0.0000000000000E+00
351  3.5000000000000E+00  0.0000000000000E+00  0.0000000000000E+00
352  3.5100000000000E+00  0.0000000000000E+00  0.0000000000000E+00
353  3.5200000000000E+00  0.0000000000000E+00  0.0000000000000E+00
354  3.5300000000000E+00  0.0000000000000E+00  0.0000000000000E+00
355  3.5400000000000E+00  0.0000000000000E+00  0.0000000000000E+00
356  3.5500000000000E+00  0.0000000000000E+00  0.0000000000000E+00
357  3.5600000000000E+00  0.0000000000000E+00  0.0000000000000E+00
358  3.5700000000000E+00  0.0000000000000E+00  0.0000000000000E+00
359  3.5800000000000E+00  0.0000000000000E+00  0.0000000000000E+00
360  3.5900000000000E+00  0.0000000000000E+00  0.0000000000000E+00
361  3.6000000000000E+00  0.0000000000000E+00  0.0000000000000E+00
362  3.6100000000000E+00  0.0000000000000E+00  0.0000000000000E+00
363  3.6200000000000E+00  0.0000000000000E+00  0.0000000000000E+00
364  3.6300000000000E+00  0.0000000000000E+00  0.0000000000000E+00
365  3.6400000000000E+00  0.0000000000000E+00  0.0000000000000E+00
366  3.6500000000000E+00  0.0000000000000E+00  0.0000000000000E+00
367  3.6600000000000E+00  0.0000000000000E+00  0.0000000000000E+00
368  3.6700000000000E+00  0.0000000000000E+00  0.0000000000000E+00
369  3.6800000000000E+00  0.0000000000000E+00  0.0000000000000E+00
370  3.6900000000000E+00  0.0000000000000E+00  0.0000000000000E+00
371  3.7000000000000E+00  0.0000000000000E+00  0.0000000000000E+00
372  3.7100000000000E+00  0.0000000000000E+00  0.0000000000000E+00
373  3.7200000000000E+00  0.0000000000000E+00  0.0000000000000E+00
374  3.7300000000000E+00  0.0000000000000E+00  0.0000000000000E+00
375  3.7400000000000E+00  0.0000000000000E+00  0.0000000000000E+00
376  3.7500000000000E+00  0.0000000000000E+00  0.0000000000000E+00
377  3.7600000000000E+00  0.0000000000000E+00  0.0000000000000E+00
378  3.7700000000000E+00  0.0000000000000E+00  0.0000000000000E+00
379  3.7800000000000E+00  0.0000000000000E+00  0.0000000000000E+00
380  3.7900000000000E+00  0.0000000000000E+00  0.0000000000000E+00
381  3.8000000000000E+00  0.0000000000000E+00  0.0000000000000E+00
382  3.8100000000000E+00  0.0000000000000E+00  0.0000000000000E+00
383  3.8200000000000E+00  0.0000000000000E+00  0.0000000000000E+00
384  3.8300000000000E+00  0.0000000000000E+00  0.0000000000000E+00
385  3.8400000000000E+00  0.0000000000000E+00  0.0000000000000E+00
386  3.8500000000000E+00  0.0000000000000E+00  0.0000000000000E+00
387  3.8600000000000E+00  0.0000000000000E+00  0.0000000000000E+00
388  3.8700000000000E+00  0.0000000000000E+00  0.0000000000000E+00
389  3.8800000000000E+00  0.0000000000000E+00  0.0000000000000E+00
390  3.8900000000000E+00  0.0000000000000E+00  0.0000000000000E+00
391  3.9000000000000E+00  0.0000000000000E+00  0.0000000000000E+00
392  3.9100000000000E+00  0.0000000000000E+00  0.0000000000000E+00
393  3.9200000000000E+00  0.0000000000000E+00  0.0000000000000E+00
394  3.9300000000000E+00  0.0000000000000E+00  0.0000000000000E+00
395  3.9400000000000E+00  0.0000000000000E+00  0.0000000000000E+00
396  3.9500000000000E+00  0.0000000000000E+00  0.0000000000000E+00
397  3.9600000000000E+00  0.0000000000000E+00  0.0000000000000E+00
398  3.9700000000000E+00  0.0000000000000E+00  0.0000000000000E+00
399  3.9800000000000E+00  0.0000000000000E+00  0.0000000000000E+00
400  3.9900000000000E+00  0.0000000000000E+00  0.0000000000000E+00
401  4.0000000000000E+00  0.0000000000000E+00  0.0000000000000E+00
402  4.0100000000000E+00  0.0000000000000E+00  0.0000000000000E+00
403  4.0200000000000E+00  0.0000000000000E+00  0.0000000000000E+00
404  4.0300000000000E+00  0.0000000000000E+00  0.0000000000000E+00
405  4.0400000000000E+00  0.0000000000000E+00  0.0000000000000E+00
406  4.0500000000000E+00  0.0000000000000E+00  0.0000000000000E+00
407  4.0600000000000E+00  0.0000000000000E+00  0.0000000000000E+00
408  4.0700000000000E+00  0.0000000000000E+00  0.0000000000000E+00
409  4.0800000000000E+00  0.0000000000000E+00  0.0000000000000E+00
410  4.0900000000000E+00  0.0000000000000E+00  0.0000000000000E+00
411  4.1000000000000E+00  0.0000000000000E+00  0.0000000000000E+00
412  4.1100000000000E+00  0.0000000000000E+00  0.0000000000000E+00
413  4.1200000000000E+00  0.0000000000000E+00  0.0000000000000E+00
414  4.1300000000000E+00  0.0000000000000E+00  0.0000000000000E+00
415  4.1400000000000E+00  0.0000000000000E+00  0.0000000000000E+00
416  4.1500000000000E+00  0.0000000000000E+00  0.0000000000000E+00
417  4.1600000000000E+00  0.0000000000000E+00  0.0000000000000E+00
418  4.1700000000000E+00  0.0000000000000E+00  0.0000000000000E+00
419  4.1800000000000E+00  0.0000000000000E+00  0.0000000000000E+00
420  4.1900000000000E+00  0.0000000000000E+00  0.0000000000000E+00
421  4.2000000000000E+00  0.0000000000000E+00  0.0000000000000E+00
422  4.2100000000000E+00  0.0000000000000E+00  0.0000000000000E+00
423  4.2200000000000E+00  0.0000000000000E+00  0.0000000000000E+00
424  4.2300000000000E+00  0.0000000000000E+00  0.0000000000000E+00
425  4.2400000000000E+00  0.0000000000000E+00  0.0000000000000E+00
426  4.2500000000000E+00  0.0000000000000E+00  0.0000000000000E+00
427  4.2600000000000E+00  0.0000000000000E+00  0.0000000000000E+00
428  4.2700000000000E+00  0.0000000000000E+00  0.0000000000000E+00
429  4.2800000000000E+00  0.0000000000000E+00  0.0000000000000E+00
430  4.2900000000000E+00  0.0000000000000E+00  0.0000000000000E+00
431  4.3000000000000E+00  0.0000000000000E+00  0.0000000000000E+00
432  4.3100000000000E+00  0.0000000000000E+00  0.0000000000000E+00
433  4.3200000000000E+00  0.0000000000000E+00  0.0000000000000E+00
434  4.3300000000000E+00  0.0000000000000E+00  0.0000000000000E+00
435  4.3400000000000E+00  0.0000000000000E+00  0.0000000000000E+00
436  4.3500000000000E+00  0.0000000000000E+00  0.0000000000000E+00
437  4.3600000000000E+00  0.0000000000000E+00  0.0000000000000E+00
438  4.3700000000000E+00  0.0000000000000E+00  0.0000000000000E+00
439  4.3800000000000E+00  0.0000000000000E+00  0.0000000000000E+00
440  4.3900000000000E+00  0.0000000000000E+00  0.0000000000000E+00
441  4.4000000000000E+00  0.0000000000000E+00  0.0000000000000E+00
442  4.4100000000000E+00  0.0000000000000E+00  0.0000000000000E+00
443  4.4200000000000E+00  0.0000000000000E+00  0.0000000000000E+00