  ABINIT 8.10.3
  
  Give name for formatted input file: 
BaTiO3.in
  Give name for formatted output file:
BaTiO3.out
  Give root name for generic input files:
tbase_xi
  Give root name for generic output files:
tbase_xo
  Give root name for generic temporary files:
tbase_x

.Version 8.10.3 of ABINIT 
.(MPI version, prepared for a x86_64_linux_gnu8.3 computer) 

.Copyright (C) 1998-2018 ABINIT group . 
 ABINIT comes with ABSOLUTELY NO WARRANTY.
 It is free software, and you are welcome to redistribute it
 under certain conditions (GNU General Public License,
 see ~abinit/COPYING or http://www.gnu.org/copyleft/gpl.txt).

 ABINIT is a project of the Universite Catholique de Louvain,
 Corning Inc. and other collaborators, see ~abinit/doc/developers/contributors.txt .
 Please read https://docs.abinit.org/theory/acknowledgments for suggested
 acknowledgments of the ABINIT effort.
 For more information, see https://www.abinit.org .

.Starting date : Wed 18 Nov 2020.
- ( at 02h53 )
  

 ++++++++++++++++++++++++++++++++++++++++++++++++++++++++++++++++++++++++++++++

 === Build Information === 
  Version       : 8.10.3
  Build target  : x86_64_linux_gnu8.3
  Build date    : 20200128

 === Compiler Suite === 
  C compiler       : gnu8.3
  C++ compiler     : gnu8.3
  Fortran compiler : gnu8.3
  CFLAGS           :  -g -O2 -mtune=native -march=native
  CXXFLAGS         :  -g -O2 -mtune=native -march=native
  FCFLAGS          :  -g -ffree-line-length-none
  FC_LDFLAGS       : 

 === Optimizations === 
  Debug level        : basic
  Optimization level : standard
  Architecture       : intel_xeon

 === Multicore === 
  Parallel build : yes
  Parallel I/O   : yes
  openMP support : no
  GPU support    : no

 === Connectors / Fallbacks === 
  Connectors on : yes
  Fallbacks on  : yes
  DFT flavor    : libxc+atompaw-fallback
  FFT flavor    : fftw3
  LINALG flavor : custom
  MATH flavor   : none
  TIMER flavor  : abinit
  TRIO flavor   : none

 === Experimental features === 
  Bindings            : @enable_bindings@
  Exports             : no
  GW double-precision : no

 ++++++++++++++++++++++++++++++++++++++++++++++++++++++++++++++++++++++++++++++


 ++++++++++++++++++++++++++++++++++++++++++++++++++++++++++++++++++++++++++++++
 Default optimizations:
   -O2 -mtune=native -march=native


 Optimizations for 43_ptgroups:
   -O0


 ++++++++++++++++++++++++++++++++++++++++++++++++++++++++++++++++++++++++++++++


 ++++++++++++++++++++++++++++++++++++++++++++++++++++++++++++++++++++++++++++++
 CPP options activated during the build:

                    CC_GNU                   CXX_GNU                    FC_GNU
 
              HAVE_ATOMPAW HAVE_FC_ALLOCATABLE_DT...             HAVE_FC_ASYNC
 
         HAVE_FC_BACKTRACE  HAVE_FC_COMMAND_ARGUMENT      HAVE_FC_COMMAND_LINE
 
        HAVE_FC_CONTIGUOUS           HAVE_FC_CPUTIME              HAVE_FC_EXIT
 
             HAVE_FC_FLUSH             HAVE_FC_GAMMA            HAVE_FC_GETENV
 
   HAVE_FC_IEEE_EXCEPTIONS          HAVE_FC_INT_QUAD             HAVE_FC_IOMSG
 
     HAVE_FC_ISO_C_BINDING  HAVE_FC_ISO_FORTRAN_2008        HAVE_FC_LONG_LINES
 
        HAVE_FC_MOVE_ALLOC           HAVE_FC_PRIVATE         HAVE_FC_PROTECTED
 
         HAVE_FC_STREAM_IO            HAVE_FC_SYSTEM                  HAVE_FFT
 
            HAVE_FFT_FFTW3              HAVE_FFT_MPI           HAVE_FFT_SERIAL
 
          HAVE_FORTRAN2003        HAVE_LIBPAW_ABINIT      HAVE_LIBTETRA_ABINIT
 
                HAVE_LIBXC               HAVE_LINALG         HAVE_LINALG_AXPBY
 
        HAVE_LINALG_GEMM3M        HAVE_LINALG_SERIAL                  HAVE_MPI
 
                 HAVE_MPI2       HAVE_MPI_IALLREDUCE        HAVE_MPI_IALLTOALL
 
       HAVE_MPI_IALLTOALLV        HAVE_MPI_INTEGER16               HAVE_MPI_IO
 
 HAVE_MPI_TYPE_CREATE_S...             HAVE_OS_LINUX         HAVE_TIMER_ABINIT
 
              USE_MACROAVE                                                      
 ++++++++++++++++++++++++++++++++++++++++++++++++++++++++++++++++++++++++++++++

- input  file    -> BaTiO3.in
- output file    -> BaTiO3.out
- root for input  files -> tbase_xi
- root for output files -> tbase_xo

-instrng: 39 lines of input have been read from file BaTiO3.in


 Please give name of formatted atomic psp file
 iofn2 : for atom type 1, psp file is ./../../../../psps_LDA/Ba.psp8

 Please give name of formatted atomic psp file
 iofn2 : for atom type 2, psp file is ./../../../../psps_LDA/Ti.psp8

 Please give name of formatted atomic psp file
 iofn2 : for atom type 3, psp file is ./../../../../psps_LDA/O.psp8
  read the values zionpsp= 10.0 , pspcod=   8 , lmax=   2
  read the values zionpsp= 12.0 , pspcod=   8 , lmax=   2
  read the values zionpsp=  6.0 , pspcod=   8 , lmax=   1

 inpspheads: deduce mpsang = 3, n1xccc = 2501.
 invars1 : treat image number: 1

 symlatt : the Bravais lattice is cP (primitive cubic)
  xcart  is defined in input file
 ingeo: takes atomic coordinates from input array xcart

 symlatt : the Bravais lattice is cP (primitive cubic)

 symlatt : the Bravais lattice is cP (primitive cubic)

--- !COMMENT
src_file: m_symfind.F90
src_line: 815
message: |
    The Bravais lattice determined only from the primitive
    vectors, bravais(1)=  7, is more symmetric
    than the real one, iholohedry=  1, obtained by taking into
    account the atomic positions. Start deforming the primitive vector set.
...


 symlatt : the Bravais lattice is hR (rhombohedral)

--- !COMMENT
src_file: m_symfind.F90
src_line: 824
message: |
    The Bravais lattice determined from modified primitive
    vectors, bravais(1)=  5, has a lower symmetry than before,
    but is still more symmetric than the real one, iholohedry=  1
    obtained by taking into account the atomic positions.
...


 symlatt : the Bravais lattice is mC (one-face-centered monoclinic)

--- !COMMENT
src_file: m_symfind.F90
src_line: 824
message: |
    The Bravais lattice determined from modified primitive
    vectors, bravais(1)=  2, has a lower symmetry than before,
    but is still more symmetric than the real one, iholohedry=  1
    obtained by taking into account the atomic positions.
...


 symlatt : the Bravais lattice is aP (primitive triclinic)
 symspgr : spgroup=   1  P1   (=C1^1)
 ingeo: angdeg(1:3)=   90.00000000   90.00000000   90.00000000
 chkneu : initialized the occupation numbers for occopt=    7, spin-unpolarized or antiferromagnetic case :
  2.00  2.00  2.00  2.00  2.00  2.00  2.00  2.00  2.00  2.00  2.00  2.00
  2.00  2.00  2.00  2.00  2.00  2.00  2.00  2.00  0.00  0.00  0.00  0.00
  0.00  0.00  0.00  0.00  0.00
mpi_setup: mkmem  undefined in the input file.Use default mkmem  = nkpt
 mpi_setup: With nkpt_me=1 and mkmem  = 1, ground state wf handled in core.
mpi_setup: mkqmem undefined in the input file.Use default mkqmem = nkpt
 mpi_setup: With nkpt_me=1 and mkqmem = 1, ground state wf handled in core.
mpi_setup: mk1mem undefined in the input file.Use default mk1mem = nkpt
 mpi_setup: With nkpt_me=1 and mk1mem = 1, ground state wf handled in core.
 For input ecut=  2.000000E+02 best grid ngfft=     100     100     100
       max ecut=  2.119145E+02

 ==== FFT mesh ====
  FFT mesh divisions ........................   100  100  100
  Augmented FFT divisions ...................   101  101  100
  FFT algorithm .............................   312
  FFT cache size ............................    16
 getmpw: optimal value of mpw= 30003

 Symmetries : space group P1 (#  1); Bravais aP (primitive triclinic)

 getdim_nloc : deduce lmnmax  =  18, lnmax  =   6,
                      lmnmaxso=  18, lnmaxso=   6.
memory : analysis of memory needs
================================================================================
 Values of the parameters that define the memory need of the present run
     intxc =       0    ionmov =       0      iscf =       7    lmnmax =       6
     lnmax =       6     mgfft =     100  mpssoang =       3    mqgrid =    4858
     natom =       5  nloc_mem =       1    nspden =       1   nspinor =       1
    nsppol =       1      nsym =       1    n1xccc =    2501    ntypat =       3
    occopt =       7   xclevel =       1
-    mband =          29        mffmem =           1         mkmem =           1
       mpw =       30003          nfft =     1000000          nkpt =           1
================================================================================
P This job should need less than                     282.419 Mbytes of memory.
  Rough estimation (10% accuracy) of disk space for files :
_ WF disk file :     13.278 Mbytes ; DEN or POT disk file :      7.631 Mbytes.
================================================================================

 Biggest array : f_fftgr(disk), with    122.0723 MBytes.
 memana : allocated an array of    122.072 Mbytes, for testing purposes.
 memana: allocated     282.419Mbytes, for testing purposes. 
 The job will continue.
--------------------------------------------------------------------------------
------------- Echo of variables that govern the present computation ------------
--------------------------------------------------------------------------------
-
- outvars: echo of selected default values                                      
-   iomode0 =  0 , fftalg0 =312 , wfoptalg0 =  0
-
- outvars: echo of global parameters not present in the input file              
-  max_nthreads =    0
-
 -outvars: echo values of preprocessed input variables --------
            acell      7.6300000000E+00  7.6300000000E+00  7.6300000000E+00 Bohr
              amu      1.37327000E+02  4.78800000E+01  1.59994000E+01
      chksymbreak           0
             ecut      2.00000000E+02 Hartree
-          fftalg         312
           istwfk        2
              ixc           2
         kptrlatt        1    0    0      0    1    0      0    0    1
          kptrlen      7.63000000E+00
P           mkmem           1
            natom           5
            nband          29
            ngfft         100     100     100
             nkpt           1
             nsym           1
           ntypat           3
              occ      2.000000  2.000000  2.000000  2.000000  2.000000  2.000000
                       2.000000  2.000000  2.000000  2.000000  2.000000  2.000000
                       2.000000  2.000000  2.000000  2.000000  2.000000  2.000000
                       2.000000  2.000000  0.000000  0.000000  0.000000  0.000000
                       0.000000  0.000000  0.000000  0.000000  0.000000
           occopt           7
            prtwf           0
          spgroup           1
           toldfe      1.00000000E-08 Hartree
           tsmear      7.34986400E-03 Hartree
            typat      1  2  3  3  3
           xangst      3.9902411689E+00  3.8359175980E+00  3.9786757106E+00
                       1.9715915973E+00  2.0523232946E+00  1.8134698373E+00
                       2.1446176571E+00  3.8048449958E+00  2.0409756385E+00
                       3.7521844135E+00  1.8396637510E+00  1.9726706342E+00
                       1.9059417650E+00  1.9306253003E+00  1.0576144485E-01
            xcart      7.5404630134E+00  7.2488337285E+00  7.5186074646E+00
                       3.7257681648E+00  3.8783289629E+00  3.4269613428E+00
                       4.0527400316E+00  7.1901150202E+00  3.8568850007E+00
                       7.0906009415E+00  3.4764606661E+00  3.7278072490E+00
                       3.6017079611E+00  3.6483530827E+00  1.9986016619E-01
             xred      9.8826513937E-01  9.5004373900E-01  9.8540071620E-01
                       4.8830513300E-01  5.0829999514E-01  4.4914303314E-01
                       5.3115858867E-01  9.4234797119E-01  5.0548951517E-01
                       9.2930549692E-01  4.5563049359E-01  4.8857237864E-01
                       4.7204560434E-01  4.7815898856E-01  2.6193992948E-02
            znucl       56.00000   22.00000    8.00000

================================================================================

 chkinp: Checking input parameters for consistency.
 DATA TYPE INFORMATION: 
 REAL:      Data type name: REAL(DP) 
            Kind value:      8
            Precision:      15
            Smallest nonnegligible quantity relative to 1:  0.22204460E-15
            Smallest positive number:                       0.22250739-307
            Largest representable number:                   0.17976931+309
 INTEGER:   Data type name: INTEGER(default) 
            Kind value: 4
            Bit size:   32
            Largest representable number: 2147483647
 LOGICAL:   Data type name: LOGICAL 
            Kind value: 4
 CHARACTER: Data type name: CHARACTER             Kind value: 1

  ==== OpenMP parallelism is OFF ====
 
  ==== Using MPI-2 specifications ==== 
  MPI-IO support is ON
  xmpi_tag_ub ................    268435455
  xmpi_bsize_ch ..............            1
  xmpi_bsize_int .............            4
  xmpi_bsize_sp ..............            4
  xmpi_bsize_dp ..............            8
  xmpi_bsize_spc .............            8
  xmpi_bsize_dpc .............           16
  xmpio_bsize_frm ............            4
  xmpi_address_kind ..........            8
  xmpi_offset_kind ...........            8
  MPI_WTICK ..................    1.0000000000000001E-009

================================================================================
== DATASET  1 ==================================================================
-   nproc =    1


--- !COMMENT
src_file: m_xgScalapack.F90
src_line: 251
message: |
    xgScalapack in auto mode
...


 getdim_nloc : deduce lmnmax  =  18, lnmax  =   6,
                      lmnmaxso=  18, lnmaxso=   6.
 Exchange-correlation functional for the present dataset will be:
  LDA: Perdew-Zunger-Ceperley-Alder - ixc=2
 Citation for XC functional:
  J.P.Perdew and A.Zunger, PRB 23, 5048 (1981)

 Unit cell volume ucvol=  4.4419495E+02 bohr^3
 Angles (23,13,12)=  9.00000000E+01  9.00000000E+01  9.00000000E+01 degrees

 getcut: wavevector=  0.0000  0.0000  0.0000  ngfft= 100 100 100
         ecut(hartree)=    200.000   => boxcut(ratio)=   2.05871
- pspini: atom type   1  psp file is ./../../../../psps_LDA/Ba.psp8
- pspatm: opening atomic psp file    ./../../../../psps_LDA/Ba.psp8
- Ba    ONCVPSP-3.3.1  r_core=   2.15444   1.91218   2.15444
- 56.00000  10.00000    201113                znucl, zion, pspdat
    8    2    2    4       600   0.00000      pspcod,pspxc,lmax,lloc,mmax,r2well
    5.99000000000000    5.00000000000000    0.00000000000000   rchrg,fchrg,qchrg
     nproj     2     2     2
     extension_switch     1
 valence charge integrates to:    9.5972706870084803     
  pspatm : epsatm=   25.96060710
         --- l  ekb(1:nproj) -->
             0    6.667782    0.685450
             1    5.045793    0.410143
             2    2.550865    0.419177
 pspatm: atomic psp has been read  and splines computed

- pspini: atom type   2  psp file is ./../../../../psps_LDA/Ti.psp8
- pspatm: opening atomic psp file    ./../../../../psps_LDA/Ti.psp8
- Ti    ONCVPSP-3.3.1  r_core=   1.35825   1.31050   1.66360
- 22.00000  12.00000    201113                znucl, zion, pspdat
    8    2    2    4       600   0.00000      pspcod,pspxc,lmax,lloc,mmax,r2well
    5.99000000000000    2.50000000000000    0.00000000000000   rchrg,fchrg,qchrg
     nproj     2     2     2
     extension_switch     1
 valence charge integrates to:    11.895426578789627     
  pspatm : epsatm=   14.76477602
         --- l  ekb(1:nproj) -->
             0   11.217743    1.241170
             1    1.919421   -0.083914
             2   -5.274126   -1.504205
 pspatm: atomic psp has been read  and splines computed

- pspini: atom type   3  psp file is ./../../../../psps_LDA/O.psp8
- pspatm: opening atomic psp file    ./../../../../psps_LDA/O.psp8
- O     ONCVPSP-3.3.1  r_core=   1.60139   1.60139
-  8.00000   6.00000    201113                znucl, zion, pspdat
    8    2    1    4       400   0.00000      pspcod,pspxc,lmax,lloc,mmax,r2well
    3.99000000000000    4.00000000000000    0.00000000000000   rchrg,fchrg,qchrg
     nproj     2     2
     extension_switch     1
 valence charge integrates to:    5.9751515642458868     
  pspatm : epsatm=    8.41098440
         --- l  ekb(1:nproj) -->
             0    2.150546   -0.316620
             1   -4.646291   -1.320741
 pspatm: atomic psp has been read  and splines computed

   2.63833345E+03                                ecore*ucvol(ha*bohr**3)
 ==== Info on pseudopotentials ====
  Norm-conserving pseudopotentials
  Number of pseudopotentials ..    3
  Number of types of atoms   ..    3
  Scalar calculation (no spin-orbit term)
  Nonlocal part applied using Legendre polynomials
  Max number of non-local projectors over l and type   2
  Highest angular momentum +1 .......   3
  Max number of (l,n)   components ..   6
  Max number of (l,m,n) components ..   6

 Pseudo-Core Charge Info: 
   Number of radial points for pseudo-core charge .. 2501
   XC core-correction treatment (optnlxccc) ........    1
   Radius for pseudo-core charge for each type ..... 

  - Atom type    1 has pseudo-core radius ..  5.9900
  - Atom type    2 has pseudo-core radius ..  5.9900
  - Atom type    3 has pseudo-core radius ..  3.9900

 Info on the Q-grid used for form factors in spline form: 
   Number of q-points for radial functions ffspl ..   4858
   Number of q-points for vlspl ...................   4858
   vloc is computed in Reciprocal Space
   model core charge treated in real-space

  XC functional for type 1 is 2
  Pseudo valence available: yes
  XC functional for type 2 is 2
  Pseudo valence available: yes
  XC functional for type 3 is 2
  Pseudo valence available: yes

 wfconv:    29 bands initialized randomly with npw= 30003, for ikpt=     1
_setup2: Arith. and geom. avg. npw (full set) are   60005.000   60005.000
 initro: for itypat=  1, take pseudo charge density from pp file
 initro: for itypat=  2, take pseudo charge density from pp file
 initro: for itypat=  3, take pseudo charge density from pp file

================================================================================

 getcut: wavevector=  0.0000  0.0000  0.0000  ngfft= 100 100 100
         ecut(hartree)=    200.000   => boxcut(ratio)=   2.05871

 ITER STEP NUMBER     1
 vtorho : nnsclo_now=2, note that nnsclo,dbl_nnsclo,istep=0 0 1
 newocc: new Fermi energy is       0.203045 , with nelect=     40.000000
  Number of bissection calls =   4
 newocc : computed new occ. numbers for occopt= 7 , spin-unpolarized case.
 2.000 2.000 2.000 2.000 2.000 2.000 2.000 2.000 2.000 2.000 2.000 2.000
 2.000 2.000 2.000 2.000 2.000 2.000 2.000 2.000 0.000 0.000 0.000 0.000
 0.000 0.000 0.000 0.000 0.000
mkrho: echo density (plane-wave part only)
 Total charge density [el/Bohr^3]
      Maximum=    1.3487E+00  at reduced coord.    0.4200    0.5500    0.4400
      Minimum=    1.0767E-03  at reduced coord.    0.4800    0.9700    0.0000
   Integrated=    4.0000E+01
 Total charge density [el/Bohr^3]
      Maximum=    1.3487E+00  at reduced coord.    0.4200    0.5500    0.4400
      Minimum=    1.0767E-03  at reduced coord.    0.4800    0.9700    0.0000
   Integrated=    4.0000E+01
  rhotov : is_hybrid_ncpp= F
  rhotov : n3xccc=     1000000
 ETOT  1  -135.79320053222    -1.358E+02 2.829E-01 2.560E+04
 scprqt: <Vxc>= -4.1724843E-01 hartree

Simple mixing update:
  residual square of the potential :   11323.717197277219
 scfcv_core: previous iteration took 07 [s]

 ITER STEP NUMBER     2
 vtorho : nnsclo_now=2, note that nnsclo,dbl_nnsclo,istep=0 0 2
 newocc: new Fermi energy is       0.315602 , with nelect=     40.000000
  Number of bissection calls =  46
 newocc : computed new occ. numbers for occopt= 7 , spin-unpolarized case.
 2.000 2.000 2.000 2.000 2.000 2.000 2.000 2.000 2.000 2.000 2.000 2.000
 2.000 2.000 2.000 2.000 2.000 2.000 2.000 1.682 0.318 0.000 0.000 0.000
 0.000 0.000 0.000 0.000 0.000
mkrho: echo density (plane-wave part only)
 Total charge density [el/Bohr^3]
      Maximum=    2.1527E+00  at reduced coord.    0.5600    0.5200    0.4000
      Minimum=    7.4134E-04  at reduced coord.    0.9900    0.9500    0.9900
   Integrated=    4.0000E+01
 Total charge density [el/Bohr^3]
      Maximum=    2.1527E+00  at reduced coord.    0.5600    0.5200    0.4000
      Minimum=    7.4134E-04  at reduced coord.    0.9900    0.9500    0.9900
   Integrated=    4.0000E+01
  rhotov : is_hybrid_ncpp= F
  rhotov : n3xccc=     1000000
 ETOT  2  -125.46714587397     1.033E+01 3.480E-02 4.391E+05
 scprqt: <Vxc>= -4.3021289E-01 hartree

 Pulay update with  1 previous iterations:
 mixing of old trial potential : alpha(m:m-4)=  0.193      0.807
 scfcv_core: previous iteration took 07 [s]

 ITER STEP NUMBER     3
 vtorho : nnsclo_now=1, note that nnsclo,dbl_nnsclo,istep=0 0 3
 newocc: new Fermi energy is       0.290960 , with nelect=     40.000000
  Number of bissection calls =   3
 newocc : computed new occ. numbers for occopt= 7 , spin-unpolarized case.
 2.000 2.000 2.000 2.000 2.000 2.000 2.000 2.000 2.000 2.000 2.000 2.000
 2.000 2.000 2.000 2.000 2.000 2.000 2.000 2.000 0.000 0.000 0.000 0.000
 0.000 0.000 0.000 0.000 0.000
mkrho: echo density (plane-wave part only)
 Total charge density [el/Bohr^3]
      Maximum=    1.3515E+00  at reduced coord.    0.5000    0.5200    0.5300
      Minimum=    7.4302E-04  at reduced coord.    0.9900    0.9500    0.9900
   Integrated=    4.0000E+01
 Total charge density [el/Bohr^3]
      Maximum=    1.3515E+00  at reduced coord.    0.5000    0.5200    0.5300
      Minimum=    7.4302E-04  at reduced coord.    0.9900    0.9500    0.9900
   Integrated=    4.0000E+01
  rhotov : is_hybrid_ncpp= F
  rhotov : n3xccc=     1000000
 ETOT  3  -136.63529034218    -1.117E+01 3.166E-02 6.590E+03
 scprqt: <Vxc>= -4.2978945E-01 hartree

 Pulay update with  2 previous iterations:
 mixing of old trial potential : alpha(m:m-4)=  0.607      0.120      0.274
 scfcv_core: previous iteration took 03 [s]

 ITER STEP NUMBER     4
 vtorho : nnsclo_now=1, note that nnsclo,dbl_nnsclo,istep=0 0 4
 newocc: new Fermi energy is       0.271892 , with nelect=     40.000000
  Number of bissection calls =   3
 newocc : computed new occ. numbers for occopt= 7 , spin-unpolarized case.
 2.000 2.000 2.000 2.000 2.000 2.000 2.000 2.000 2.000 2.000 2.000 2.000
 2.000 2.000 2.000 2.000 2.000 2.000 2.000 2.000 0.000 0.000 0.000 0.000
 0.000 0.000 0.000 0.000 0.000
mkrho: echo density (plane-wave part only)
 Total charge density [el/Bohr^3]
      Maximum=    1.3679E+00  at reduced coord.    0.5000    0.5200    0.5300
      Minimum=    7.2520E-04  at reduced coord.    0.9900    0.9500    0.9900
   Integrated=    4.0000E+01
 Total charge density [el/Bohr^3]
      Maximum=    1.3679E+00  at reduced coord.    0.5000    0.5200    0.5300
      Minimum=    7.2520E-04  at reduced coord.    0.9900    0.9500    0.9900
   Integrated=    4.0000E+01
  rhotov : is_hybrid_ncpp= F
  rhotov : n3xccc=     1000000
 ETOT  4  -136.67399556479    -3.871E-02 2.731E-03 3.598E+03
 scprqt: <Vxc>= -4.2675117E-01 hartree

 Pulay update with  3 previous iterations:
 mixing of old trial potential : alpha(m:m-4)=   1.12     -0.171      0.770E-01 -0.293E-01
 scfcv_core: previous iteration took 03 [s]

 ITER STEP NUMBER     5
 vtorho : nnsclo_now=1, note that nnsclo,dbl_nnsclo,istep=0 0 5
 newocc: new Fermi energy is       0.264921 , with nelect=     40.000000
  Number of bissection calls =   3
 newocc : computed new occ. numbers for occopt= 7 , spin-unpolarized case.
 2.000 2.000 2.000 2.000 2.000 2.000 2.000 2.000 2.000 2.000 2.000 2.000
 2.000 2.000 2.000 2.000 2.000 2.000 2.000 2.000 0.000 0.000 0.000 0.000
 0.000 0.000 0.000 0.000 0.000
mkrho: echo density (plane-wave part only)
 Total charge density [el/Bohr^3]
      Maximum=    1.4117E+00  at reduced coord.    0.5000    0.5200    0.5300
      Minimum=    7.2634E-04  at reduced coord.    0.9900    0.9500    0.9900
   Integrated=    4.0000E+01
 Total charge density [el/Bohr^3]
      Maximum=    1.4117E+00  at reduced coord.    0.5000    0.5200    0.5300
      Minimum=    7.2634E-04  at reduced coord.    0.9900    0.9500    0.9900
   Integrated=    4.0000E+01
  rhotov : is_hybrid_ncpp= F
  rhotov : n3xccc=     1000000
 ETOT  5  -136.73091946964    -5.692E-02 4.667E-04 9.370E+02
 scprqt: <Vxc>= -4.2730320E-01 hartree

 Pulay update with  4 previous iterations:
 mixing of old trial potential : alpha(m:m-4)=  0.502      0.692     -0.210      0.538E-01 -0.384E-01
 scfcv_core: previous iteration took 03 [s]

 ITER STEP NUMBER     6
 vtorho : nnsclo_now=1, note that nnsclo,dbl_nnsclo,istep=0 0 6
 newocc: new Fermi energy is       0.261472 , with nelect=     40.000000
  Number of bissection calls =   3
 newocc : computed new occ. numbers for occopt= 7 , spin-unpolarized case.
 2.000 2.000 2.000 2.000 2.000 2.000 2.000 2.000 2.000 2.000 2.000 2.000
 2.000 2.000 2.000 2.000 2.000 2.000 2.000 2.000 0.000 0.000 0.000 0.000
 0.000 0.000 0.000 0.000 0.000
mkrho: echo density (plane-wave part only)
 Total charge density [el/Bohr^3]
      Maximum=    1.4160E+00  at reduced coord.    0.5000    0.5200    0.5300
      Minimum=    7.2618E-04  at reduced coord.    0.9900    0.9500    0.9900
   Integrated=    4.0000E+01
 Total charge density [el/Bohr^3]
      Maximum=    1.4160E+00  at reduced coord.    0.5000    0.5200    0.5300
      Minimum=    7.2618E-04  at reduced coord.    0.9900    0.9500    0.9900
   Integrated=    4.0000E+01
  rhotov : is_hybrid_ncpp= F
  rhotov : n3xccc=     1000000
 ETOT  6  -136.74296419787    -1.204E-02 3.853E-04 3.390E+02
 scprqt: <Vxc>= -4.2741387E-01 hartree

 Pulay update with  5 previous iterations:
 mixing of old trial potential : alpha(m:m-4)=  0.893      0.130     -0.690E-02 -0.560E-01  0.254E-01
 scfcv_core: previous iteration took 03 [s]

 ITER STEP NUMBER     7
 vtorho : nnsclo_now=1, note that nnsclo,dbl_nnsclo,istep=0 0 7
 newocc: new Fermi energy is       0.259640 , with nelect=     40.000000
  Number of bissection calls =   3
 newocc : computed new occ. numbers for occopt= 7 , spin-unpolarized case.
 2.000 2.000 2.000 2.000 2.000 2.000 2.000 2.000 2.000 2.000 2.000 2.000
 2.000 2.000 2.000 2.000 2.000 2.000 2.000 2.000 0.000 0.000 0.000 0.000
 0.000 0.000 0.000 0.000 0.000
mkrho: echo density (plane-wave part only)
 Total charge density [el/Bohr^3]
      Maximum=    1.4270E+00  at reduced coord.    0.5000    0.5200    0.5300
      Minimum=    7.2640E-04  at reduced coord.    0.9900    0.9500    0.9900
   Integrated=    4.0000E+01
 Total charge density [el/Bohr^3]
      Maximum=    1.4270E+00  at reduced coord.    0.5000    0.5200    0.5300
      Minimum=    7.2640E-04  at reduced coord.    0.9900    0.9500    0.9900
   Integrated=    4.0000E+01
  rhotov : is_hybrid_ncpp= F
  rhotov : n3xccc=     1000000
 ETOT  7  -136.74789862155    -4.934E-03 5.799E-05 8.105E+01
 scprqt: <Vxc>= -4.2735288E-01 hartree

 Pulay update with  6 previous iterations:
 mixing of old trial potential : alpha(m:m-4)=   1.45     -0.229     -0.142     -0.837E-01  0.913E-03
 scfcv_core: previous iteration took 03 [s]

 ITER STEP NUMBER     8
 vtorho : nnsclo_now=1, note that nnsclo,dbl_nnsclo,istep=0 0 8
 newocc: new Fermi energy is       0.257812 , with nelect=     40.000000
  Number of bissection calls =   3
 newocc : computed new occ. numbers for occopt= 7 , spin-unpolarized case.
 2.000 2.000 2.000 2.000 2.000 2.000 2.000 2.000 2.000 2.000 2.000 2.000
 2.000 2.000 2.000 2.000 2.000 2.000 2.000 2.000 0.000 0.000 0.000 0.000
 0.000 0.000 0.000 0.000 0.000
mkrho: echo density (plane-wave part only)
 Total charge density [el/Bohr^3]
      Maximum=    1.4403E+00  at reduced coord.    0.5400    0.5500    0.4000
      Minimum=    7.2640E-04  at reduced coord.    0.9900    0.9500    0.9900
   Integrated=    4.0000E+01
 Total charge density [el/Bohr^3]
      Maximum=    1.4403E+00  at reduced coord.    0.5400    0.5500    0.4000
      Minimum=    7.2640E-04  at reduced coord.    0.9900    0.9500    0.9900
   Integrated=    4.0000E+01
  rhotov : is_hybrid_ncpp= F
  rhotov : n3xccc=     1000000
 ETOT  8  -136.74947422405    -1.576E-03 5.823E-04 5.236E-01
 scprqt: <Vxc>= -4.2734973E-01 hartree

 Pulay update with  7 previous iterations:
 mixing of old trial potential : alpha(m:m-4)=  0.858      0.291     -0.109     -0.255E-01 -0.193E-01
 scfcv_core: previous iteration took 03 [s]

 ITER STEP NUMBER     9
 vtorho : nnsclo_now=1, note that nnsclo,dbl_nnsclo,istep=0 0 9
 newocc: new Fermi energy is       0.257666 , with nelect=     40.000000
  Number of bissection calls =   3
 newocc : computed new occ. numbers for occopt= 7 , spin-unpolarized case.
 2.000 2.000 2.000 2.000 2.000 2.000 2.000 2.000 2.000 2.000 2.000 2.000
 2.000 2.000 2.000 2.000 2.000 2.000 2.000 2.000 0.000 0.000 0.000 0.000
 0.000 0.000 0.000 0.000 0.000
mkrho: echo density (plane-wave part only)
 Total charge density [el/Bohr^3]
      Maximum=    1.4404E+00  at reduced coord.    0.5400    0.5500    0.4000
      Minimum=    7.2637E-04  at reduced coord.    0.9900    0.9500    0.9900
   Integrated=    4.0000E+01
 Total charge density [el/Bohr^3]
      Maximum=    1.4404E+00  at reduced coord.    0.5400    0.5500    0.4000
      Minimum=    7.2637E-04  at reduced coord.    0.9900    0.9500    0.9900
   Integrated=    4.0000E+01
  rhotov : is_hybrid_ncpp= F
  rhotov : n3xccc=     1000000
 ETOT  9  -136.74947740154    -3.177E-06 2.413E-05 4.970E-01
 scprqt: <Vxc>= -4.2733436E-01 hartree

 Pulay update with  7 previous iterations:
 mixing of old trial potential : alpha(m:m-4)=  0.480      0.516      0.277E-01 -0.297E-01  0.442E-02
 scfcv_core: previous iteration took 03 [s]

 ITER STEP NUMBER    10
 vtorho : nnsclo_now=1, note that nnsclo,dbl_nnsclo,istep=0 0 10
 newocc: new Fermi energy is       0.257665 , with nelect=     40.000000
  Number of bissection calls =   3
 newocc : computed new occ. numbers for occopt= 7 , spin-unpolarized case.
 2.000 2.000 2.000 2.000 2.000 2.000 2.000 2.000 2.000 2.000 2.000 2.000
 2.000 2.000 2.000 2.000 2.000 2.000 2.000 2.000 0.000 0.000 0.000 0.000
 0.000 0.000 0.000 0.000 0.000
mkrho: echo density (plane-wave part only)
 Total charge density [el/Bohr^3]
      Maximum=    1.4399E+00  at reduced coord.    0.5400    0.5500    0.4000
      Minimum=    7.2637E-04  at reduced coord.    0.9900    0.9500    0.9900
   Integrated=    4.0000E+01
 Total charge density [el/Bohr^3]
      Maximum=    1.4399E+00  at reduced coord.    0.5400    0.5500    0.4000
      Minimum=    7.2637E-04  at reduced coord.    0.9900    0.9500    0.9900
   Integrated=    4.0000E+01
  rhotov : is_hybrid_ncpp= F
  rhotov : n3xccc=     1000000
 ETOT 10  -136.74948628076    -8.879E-06 1.208E-04 5.569E-02
 scprqt: <Vxc>= -4.2733538E-01 hartree

 Pulay update with  7 previous iterations:
 mixing of old trial potential : alpha(m:m-4)=  0.735      0.214      0.645E-01 -0.441E-01  0.204E-01
 scfcv_core: previous iteration took 03 [s]

 ITER STEP NUMBER    11
 vtorho : nnsclo_now=1, note that nnsclo,dbl_nnsclo,istep=0 0 11
 newocc: new Fermi energy is       0.257659 , with nelect=     40.000000
  Number of bissection calls =   3
 newocc : computed new occ. numbers for occopt= 7 , spin-unpolarized case.
 2.000 2.000 2.000 2.000 2.000 2.000 2.000 2.000 2.000 2.000 2.000 2.000
 2.000 2.000 2.000 2.000 2.000 2.000 2.000 2.000 0.000 0.000 0.000 0.000
 0.000 0.000 0.000 0.000 0.000
mkrho: echo density (plane-wave part only)
 Total charge density [el/Bohr^3]
      Maximum=    1.4393E+00  at reduced coord.    0.5400    0.5500    0.4000
      Minimum=    7.2636E-04  at reduced coord.    0.9900    0.9500    0.9900
   Integrated=    4.0000E+01
 Total charge density [el/Bohr^3]
      Maximum=    1.4393E+00  at reduced coord.    0.5400    0.5500    0.4000
      Minimum=    7.2636E-04  at reduced coord.    0.9900    0.9500    0.9900
   Integrated=    4.0000E+01
  rhotov : is_hybrid_ncpp= F
  rhotov : n3xccc=     1000000
 ETOT 11  -136.74948728143    -1.001E-06 6.626E-06 5.610E-03
 scprqt: <Vxc>= -4.2733747E-01 hartree

 Pulay update with  7 previous iterations:
 mixing of old trial potential : alpha(m:m-4)=  0.819      0.160      0.234E-01 -0.635E-03 -0.453E-02
 scfcv_core: previous iteration took 03 [s]

 ITER STEP NUMBER    12
 vtorho : nnsclo_now=1, note that nnsclo,dbl_nnsclo,istep=0 0 12
 newocc: new Fermi energy is       0.257602 , with nelect=     40.000000
  Number of bissection calls =   3
 newocc : computed new occ. numbers for occopt= 7 , spin-unpolarized case.
 2.000 2.000 2.000 2.000 2.000 2.000 2.000 2.000 2.000 2.000 2.000 2.000
 2.000 2.000 2.000 2.000 2.000 2.000 2.000 2.000 0.000 0.000 0.000 0.000
 0.000 0.000 0.000 0.000 0.000
mkrho: echo density (plane-wave part only)
 Total charge density [el/Bohr^3]
      Maximum=    1.4395E+00  at reduced coord.    0.5400    0.5500    0.4000
      Minimum=    7.2637E-04  at reduced coord.    0.9900    0.9500    0.9900
   Integrated=    4.0000E+01
 Total charge density [el/Bohr^3]
      Maximum=    1.4395E+00  at reduced coord.    0.5400    0.5500    0.4000
      Minimum=    7.2637E-04  at reduced coord.    0.9900    0.9500    0.9900
   Integrated=    4.0000E+01
  rhotov : is_hybrid_ncpp= F
  rhotov : n3xccc=     1000000
 ETOT 12  -136.74948738890    -1.075E-07 5.800E-05 7.981E-05
 scprqt: <Vxc>= -4.2733832E-01 hartree

 Pulay update with  7 previous iterations:
 mixing of old trial potential : alpha(m:m-4)=  0.747      0.250      0.186E-01 -0.148E-02 -0.115E-01
 scfcv_core: previous iteration took 03 [s]

 ITER STEP NUMBER    13
 vtorho : nnsclo_now=1, note that nnsclo,dbl_nnsclo,istep=0 0 13
 newocc: new Fermi energy is       0.257571 , with nelect=     40.000000
  Number of bissection calls =   3
 newocc : computed new occ. numbers for occopt= 7 , spin-unpolarized case.
 2.000 2.000 2.000 2.000 2.000 2.000 2.000 2.000 2.000 2.000 2.000 2.000
 2.000 2.000 2.000 2.000 2.000 2.000 2.000 2.000 0.000 0.000 0.000 0.000
 0.000 0.000 0.000 0.000 0.000
mkrho: echo density (plane-wave part only)
 Total charge density [el/Bohr^3]
      Maximum=    1.4394E+00  at reduced coord.    0.5400    0.5500    0.4000
      Minimum=    7.2637E-04  at reduced coord.    0.9900    0.9500    0.9900
   Integrated=    4.0000E+01
 Total charge density [el/Bohr^3]
      Maximum=    1.4394E+00  at reduced coord.    0.5400    0.5500    0.4000
      Minimum=    7.2637E-04  at reduced coord.    0.9900    0.9500    0.9900
   Integrated=    4.0000E+01
  rhotov : is_hybrid_ncpp= F
  rhotov : n3xccc=     1000000
 ETOT 13  -136.74948739118    -2.285E-09 3.539E-06 1.373E-06
 scprqt: <Vxc>= -4.2733776E-01 hartree

 Pulay update with  7 previous iterations:
 mixing of old trial potential : alpha(m:m-4)=   1.00      0.506E-01 -0.432E-01 -0.928E-02  0.148E-03
 scfcv_core: previous iteration took 03 [s]

 ITER STEP NUMBER    14
 vtorho : nnsclo_now=1, note that nnsclo,dbl_nnsclo,istep=0 0 14
 newocc: new Fermi energy is       0.257549 , with nelect=     40.000000
  Number of bissection calls =   3
 newocc : computed new occ. numbers for occopt= 7 , spin-unpolarized case.
 2.000 2.000 2.000 2.000 2.000 2.000 2.000 2.000 2.000 2.000 2.000 2.000
 2.000 2.000 2.000 2.000 2.000 2.000 2.000 2.000 0.000 0.000 0.000 0.000
 0.000 0.000 0.000 0.000 0.000
mkrho: echo density (plane-wave part only)
 Total charge density [el/Bohr^3]
      Maximum=    1.4395E+00  at reduced coord.    0.5400    0.5500    0.4000
      Minimum=    7.2637E-04  at reduced coord.    0.9900    0.9500    0.9900
   Integrated=    4.0000E+01
 Total charge density [el/Bohr^3]
      Maximum=    1.4395E+00  at reduced coord.    0.5400    0.5500    0.4000
      Minimum=    7.2637E-04  at reduced coord.    0.9900    0.9500    0.9900
   Integrated=    4.0000E+01
  rhotov : is_hybrid_ncpp= F
  rhotov : n3xccc=     1000000
 ETOT 14  -136.74948739120    -1.879E-11 3.231E-05 2.425E-07
 scprqt: <Vxc>= -4.2733783E-01 hartree

 At SCF step   14, etot is converged : 
  for the second time, diff in etot=  1.879E-11 < toldfe=  1.000E-08

 Cartesian components of stress tensor (hartree/bohr^3)
  sigma(1 1)= -9.11007391E-04  sigma(3 2)=  7.05978998E-05
  sigma(2 2)= -9.81817929E-04  sigma(3 1)= -1.03719486E-04
  sigma(3 3)= -1.36819301E-03  sigma(2 1)=  2.01733771E-04

 fftdatar_write: About to write data to: tbase_xo_DEN with iomode IO_MODE_FORTRAN
 IO operation completed. cpu_time:       0.0 [s], walltime:       0.0 [s]
================================================================================

 ----iterations are completed or convergence reached----


 === Gap info ===
  >>>> For spin  1
   Minimum optical gap =   3.0186 [eV], located at k-point      :   0.0000  0.0000  0.0000
   Fundamental gap     =   3.0186 [eV], Top of valence bands at :   0.0000  0.0000  0.0000
                                        Bottom of conduction at :   0.0000  0.0000  0.0000
 Mean square residual over all n,k,spin=   11.143E-07; max=  32.313E-06
   0.0000  0.0000  0.0000    1  3.23129E-05 kpt; spin; max resid(k); each band:
  8.59E-13 9.73E-13 6.44E-13 3.86E-13 2.93E-14 3.52E-13 2.89E-13 3.21E-13
  2.01E-14 1.78E-14 1.34E-14 2.28E-13 2.19E-13 1.95E-13 1.44E-13 1.67E-13
  1.17E-13 2.78E-13 1.95E-13 2.03E-13 4.48E-13 1.58E-12 5.39E-13 1.23E-13
  1.43E-13 2.15E-10 1.66E-09 1.67E-11 3.23E-05
 prteigrs : about to open file tbase_xo_EIG
 Fermi (or HOMO) energy (hartree) =   0.25755   Average Vxc (hartree)=  -0.42734
 Eigenvalues (hartree) for nkpt=   1  k points:
 kpt#   1, nband= 29, wtk=  1.00000, kpt=  0.0000  0.0000  0.0000 (reduced coord)
  -1.80146   -0.94885   -0.94621   -0.94560   -0.71311   -0.36865   -0.34390   -0.33424
  -0.16668   -0.16586   -0.16550    0.14050    0.14773    0.15170    0.15940    0.16264
   0.18445    0.19758    0.20140    0.21571    0.32664    0.34142    0.35646    0.38430
   0.38622    0.41713    0.43051    0.46040    0.51389
      occupation numbers for kpt#   1
   2.00000    2.00000    2.00000    2.00000    2.00000    2.00000    2.00000    2.00000
   2.00000    2.00000    2.00000    2.00000    2.00000    2.00000    2.00000    2.00000
   2.00000    2.00000    2.00000    2.00000    0.00000    0.00000    0.00000    0.00000
   0.00000    0.00000    0.00000    0.00000    0.00000
 Total charge density [el/Bohr^3]
      Maximum=    1.4395E+00  at reduced coord.    0.5400    0.5500    0.4000
 Next maximum=    1.4358E+00  at reduced coord.    0.5000    0.5200    0.5300
      Minimum=    7.2637E-04  at reduced coord.    0.9900    0.9500    0.9900
 Next minimum=    7.4146E-04  at reduced coord.    0.9900    0.9500    0.9800
   Integrated=    4.0000E+01

 Cartesian components of stress tensor (hartree/bohr^3)
  sigma(1 1)= -9.11007391E-04  sigma(3 2)=  7.05978998E-05
  sigma(2 2)= -9.81817929E-04  sigma(3 1)= -1.03719486E-04
  sigma(3 3)= -1.36819301E-03  sigma(2 1)=  2.01733771E-04

-Cartesian components of stress tensor (GPa)         [Pressure=  3.1981E+01 GPa]
- sigma(1 1)= -2.68027583E+01  sigma(3 2)=  2.07706157E+00
- sigma(2 2)= -2.88860759E+01  sigma(3 1)= -3.05153211E+00
- sigma(3 3)= -4.02536215E+01  sigma(2 1)=  5.93521144E+00

== END DATASET(S) ==============================================================
================================================================================
  
 -outvars: echo values of variables after computation  --------
            acell      7.6300000000E+00  7.6300000000E+00  7.6300000000E+00 Bohr
              amu      1.37327000E+02  4.78800000E+01  1.59994000E+01
      chksymbreak           0
             ecut      2.00000000E+02 Hartree
           etotal     -1.3674948739E+02
            fcart     -3.4149021961E-03  1.6695445176E-03 -2.7774088119E-02
                       9.5376845516E-02  1.8445440437E-01 -1.7698414406E-01
                       1.1837009048E-02 -7.5709217852E-02  8.0399354531E-02
                      -3.6017278305E-02 -8.1402862459E-02  5.8225600142E-02
                      -6.7781674063E-02 -2.9011868577E-02  6.6133277504E-02
-          fftalg         312
           istwfk        2
              ixc           2
         kptrlatt        1    0    0      0    1    0      0    0    1
          kptrlen      7.63000000E+00
P           mkmem           1
            natom           5
            nband          29
            ngfft         100     100     100
             nkpt           1
             nsym           1
           ntypat           3
              occ      2.000000  2.000000  2.000000  2.000000  2.000000  2.000000
                       2.000000  2.000000  2.000000  2.000000  2.000000  2.000000
                       2.000000  2.000000  2.000000  2.000000  2.000000  2.000000
                       2.000000  2.000000  0.000000  0.000000  0.000000  0.000000
                       0.000000  0.000000  0.000000  0.000000  0.000000
           occopt           7
            prtwf           0
          spgroup           1
           strten     -9.1100739111E-04 -9.8181792869E-04 -1.3681930144E-03
                       7.0597899842E-05 -1.0371948575E-04  2.0173377059E-04
           toldfe      1.00000000E-08 Hartree
           tsmear      7.34986400E-03 Hartree
            typat      1  2  3  3  3
           xangst      3.9902411689E+00  3.8359175980E+00  3.9786757106E+00
                       1.9715915973E+00  2.0523232946E+00  1.8134698373E+00
                       2.1446176571E+00  3.8048449958E+00  2.0409756385E+00
                       3.7521844135E+00  1.8396637510E+00  1.9726706342E+00
                       1.9059417650E+00  1.9306253003E+00  1.0576144485E-01
            xcart      7.5404630134E+00  7.2488337285E+00  7.5186074646E+00
                       3.7257681648E+00  3.8783289629E+00  3.4269613428E+00
                       4.0527400316E+00  7.1901150202E+00  3.8568850007E+00
                       7.0906009415E+00  3.4764606661E+00  3.7278072490E+00
                       3.6017079611E+00  3.6483530827E+00  1.9986016619E-01
             xred      9.8826513937E-01  9.5004373900E-01  9.8540071620E-01
                       4.8830513300E-01  5.0829999514E-01  4.4914303314E-01
                       5.3115858867E-01  9.4234797119E-01  5.0548951517E-01
                       9.2930549692E-01  4.5563049359E-01  4.8857237864E-01
                       4.7204560434E-01  4.7815898856E-01  2.6193992948E-02
            znucl       56.00000   22.00000    8.00000

================================================================================
  

================================================================================

 Suggested references for the acknowledgment of ABINIT usage.

 The users of ABINIT have little formal obligations with respect to the ABINIT group
 (those specified in the GNU General Public License, http://www.gnu.org/copyleft/gpl.txt).
 However, it is common practice in the scientific literature,
 to acknowledge the efforts of people that have made the research possible.
 In this spirit, please find below suggested citations of work written by ABINIT developers,
 corresponding to implementations inside of ABINIT that you have used in the present run.
 Note also that it will be of great value to readers of publications presenting these results,
 to read papers enabling them to understand the theoretical formalism and details
 of the ABINIT implementation.
 For information on why they are suggested, see also https://docs.abinit.org/theory/acknowledgments.
-
- [1] Recent developments in the ABINIT software package.
- Computer Phys. Comm. 205, 106 (2016).
- X.Gonze, F.Jollet, F.Abreu Araujo, D.Adams, B.Amadon, T.Applencourt,
- C.Audouze, J.-M.Beuken, J.Bieder, A.Bokhanchuk, E.Bousquet, F.Bruneval
- D.Caliste, M.Cote, F.Dahm, F.Da Pieve, M.Delaveau, M.Di Gennaro,
- B.Dorado, C.Espejo, G.Geneste, L.Genovese, A.Gerossier, M.Giantomassi,
- Y.Gillet, D.R.Hamann, L.He, G.Jomard, J.Laflamme Janssen, S.Le Roux,
- A.Levitt, A.Lherbier, F.Liu, I.Lukacevic, A.Martin, C.Martins,
- M.J.T.Oliveira, S.Ponce, Y.Pouillon, T.Rangel, G.-M.Rignanese,
- A.H.Romero, B.Rousseau, O.Rubel, A.A.Shukri, M.Stankovski, M.Torrent,
- M.J.Van Setten, B.Van Troeye, M.J.Verstraete, D.Waroquier, J.Wiktor,
- B.Xu, A.Zhou, J.W.Zwanziger.
- Comment : the fourth generic paper describing the ABINIT project.
- Note that a version of this paper, that is not formatted for Computer Phys. Comm. 
- is available at https://www.abinit.org/about/ABINIT16.pdf .
- The licence allows the authors to put it on the Web.
- DOI and bibtex : see https://docs.abinit.org/theory/bibliography/#gonze2016
-
- [2] Optimized norm-conserving Vanderbilt pseudopotentials.
- D.R. Hamann, Phys. Rev. B 88, 085117 (2013).
- Comment: Some pseudopotential generated using the ONCVPSP code were used.
- DOI and bibtex : see https://docs.abinit.org/theory/bibliography/#hamann2013
-
- [3] ABINIT : First-principles approach of materials and nanosystem properties.
- Computer Phys. Comm. 180, 2582-2615 (2009).
- X. Gonze, B. Amadon, P.-M. Anglade, J.-M. Beuken, F. Bottin, P. Boulanger, F. Bruneval,
- D. Caliste, R. Caracas, M. Cote, T. Deutsch, L. Genovese, Ph. Ghosez, M. Giantomassi
- S. Goedecker, D.R. Hamann, P. Hermet, F. Jollet, G. Jomard, S. Leroux, M. Mancini, S. Mazevet,
- M.J.T. Oliveira, G. Onida, Y. Pouillon, T. Rangel, G.-M. Rignanese, D. Sangalli, R. Shaltaf,
- M. Torrent, M.J. Verstraete, G. Zerah, J.W. Zwanziger
- Comment : the third generic paper describing the ABINIT project.
- Note that a version of this paper, that is not formatted for Computer Phys. Comm. 
- is available at https://www.abinit.org/about/ABINIT_CPC_v10.pdf .
- The licence allows the authors to put it on the Web.
- DOI and bibtex : see https://docs.abinit.org/theory/bibliography/#gonze2009
-
- [4] A brief introduction to the ABINIT software package.
- Z. Kristallogr. 220, 558-562 (2005).
- X. Gonze, G.-M. Rignanese, M. Verstraete, J.-M. Beuken, Y. Pouillon, R. Caracas, F. Jollet,
- M. Torrent, G. Zerah, M. Mikami, Ph. Ghosez, M. Veithen, J.-Y. Raty, V. Olevano, F. Bruneval,
- L. Reining, R. Godby, G. Onida, D.R. Hamann, and D.C. Allan.
- Comment : the second generic paper describing the ABINIT project. Note that this paper
- should be cited especially if you are using the GW part of ABINIT, as several authors
- of this part are not in the list of authors of the first or third paper.
- The .pdf of the latter paper is available at https://www.abinit.org/about/zfk_0505-06_558-562.pdf.
- Note that it should not redistributed (Copyright by Oldenburg Wissenshaftverlag,
- the licence allows the authors to put it on the Web).
- DOI and bibtex : see https://docs.abinit.org/theory/bibliography/#gonze2005
-
- And optionally:
-
- [5] First-principles computation of material properties : the ABINIT software project. 
- X. Gonze, J.-M. Beuken, R. Caracas, F. Detraux, M. Fuchs, G.-M. Rignanese, L. Sindic,
- M. Verstraete, G. Zerah, F. Jollet, M. Torrent, A. Roy, M. Mikami, Ph. Ghosez, J.-Y. Raty, D.C. Allan.
- Computational Materials Science 25, 478-492 (2002). http://dx.doi.org/10.1016/S0927-0256(02)00325-7
- Comment : the original paper describing the ABINIT project.
- DOI and bibtex : see https://docs.abinit.org/theory/bibliography/#gonze2002
 Proc.   0 individual time (sec): cpu=         64.5  wall=         64.7

 Calculation completed.
.Delivered   0 WARNINGs and   4 COMMENTs to log file.

--- !FinalSummary
program: abinit
version: 8.10.3
start_datetime: Wed Nov 18 02:53:05 2020
end_datetime: Wed Nov 18 02:54:09 2020
overall_cpu_time:          64.5
overall_wall_time:          64.7
exit_requested_by_user: no 
timelimit: 0
pseudos: 
    Ba  : f970ca941415882e59f5c0f4514bf5fc
    Ti  : 2ba723d87497a1187f7299d3fcc78f26
    O   : 768513598674c8a997218a522c06f028
usepaw: 0
mpi_procs: 1
omp_threads: 1
num_warnings: 0
num_comments: 4
...
