W     ONCVPSP-3.3.0  r_core=   1.61105   1.61105   1.61105   2.02088
74.0000     14.0000      180416    zatom,zion,pspd
8      11   3     4   600     0    pspcod,pspxc,lmax,lloc,mmax,r2well
5.99000000  5.00000000  0.00000000    rchrg fchrg qchrg
2     4     3     4    nproj
3     1           extension_switch
4     4     4    nprojso
0                         1.8412391152680E+00  1.3002951380931E+01
1  0.0000000000000E+00  3.1317151649723E-10 -6.3059835131440E-11
2  1.0000000000000E-02 -2.0431656376222E-02  5.2650921186398E-02
3  2.0000000000000E-02 -4.0774006133896E-02  1.0524113466897E-01
4  3.0000000000000E-02 -6.0938280750048E-02  1.5771000033879E-01
5  4.0000000000000E-02 -8.0836781409095E-02  2.0999701242326E-01
6  5.0000000000000E-02 -1.0038339772748E-01  2.6204186453683E-01
7  6.0000000000000E-02 -1.1949410734749E-01  3.1378451223608E-01
8  7.0000000000000E-02 -1.3808745039431E-01  3.6516523232225E-01
9  8.0000000000000E-02 -1.5608497310350E-01  4.1612467819722E-01
10  9.0000000000000E-02 -1.7341163531171E-01  4.6660393065657E-01
11  1.0000000000000E-01 -1.8999617695694E-01  5.1654454359408E-01
12  1.1000000000000E-01 -2.0577143925242E-01  5.6588858419517E-01
13  1.2000000000000E-01 -2.2067463677376E-01  6.1457866731113E-01
14  1.3000000000000E-01 -2.3464757732699E-01  6.6255798382970E-01
15  1.4000000000000E-01 -2.4763682713878E-01  7.0977032298944E-01
16  1.5000000000000E-01 -2.5959381962171E-01  7.5616008872373E-01
17  1.6000000000000E-01 -2.7047490671023E-01  8.0167231026274E-01
18  1.7000000000000E-01 -2.8024135252716E-01  8.4625264736712E-01
19  1.8000000000000E-01 -2.8885926991954E-01  8.8984739071313E-01
20  1.9000000000000E-01 -2.9629950118529E-01  9.3240345809282E-01
21  2.0000000000000E-01 -3.0253744509122E-01  9.7386838723389E-01
22  2.1000000000000E-01 -3.0755283304758E-01  1.0141903261782E+00
23  2.2000000000000E-01 -3.1132945804646E-01  1.0533180222842E+00
24  2.3000000000000E-01 -3.1385486068011E-01  1.0912008110361E+00
25  2.4000000000000E-01 -3.1511997722284E-01  1.1277886059438E+00
26  2.5000000000000E-01 -3.1511875537647E-01  1.1630318909099E+00
27  2.6000000000000E-01 -3.1384774383612E-01  1.1968817165107E+00
28  2.7000000000000E-01 -3.1130566232201E-01  1.2292897016946E+00
29  2.8000000000000E-01 -3.0749295913606E-01  1.2602080424321E+00
30  2.9000000000000E-01 -3.0241136363273E-01  1.2895895288696E+00
31  3.0000000000000E-01 -2.9606344123456E-01  1.3173875725240E+00
32  3.1000000000000E-01 -2.8845215876997E-01  1.3435562450249E+00
33  3.2000000000000E-01 -2.7958046795782E-01  1.3680503298491E+00
34  3.3000000000000E-01 -2.6945091480831E-01  1.3908253884096E+00
35  3.4000000000000E-01 -2.5806528254918E-01  1.4118378417506E+00
36  3.5000000000000E-01 -2.4542427541932E-01  1.4310450689639E+00
37  3.6000000000000E-01 -2.3152725029831E-01  1.4484055232806E+00
38  3.7000000000000E-01 -2.1637200266227E-01  1.4638788666085E+00
39  3.8000000000000E-01 -1.9995461277526E-01  1.4774261230734E+00
40  3.9000000000000E-01 -1.8226935734579E-01  1.4890098518939E+00
41  4.0000000000000E-01 -1.6330869110560E-01  1.4985943396677E+00
42  4.1000000000000E-01 -1.4306330190841E-01  1.5061458118779E+00
43  4.2000000000000E-01 -1.2152224200873E-01  1.5116326631426E+00
44  4.3000000000000E-01 -9.8673137173719E-02  1.5150257054359E+00
45  4.4000000000000E-01 -7.4502474215379E-02  1.5162984331999E+00
46  4.5000000000000E-01 -4.8995966417392E-02  1.5154273039554E+00
47  4.6000000000000E-01 -2.2138995183192E-02  1.5123920327041E+00
48  4.7000000000000E-01  6.0828749367137E-03  1.5071758981013E+00
49  4.8000000000000E-01  3.5683311855684E-02  1.4997660580726E+00
50  4.9000000000000E-01  6.6674567385301E-02  1.4901538722456E+00
51  5.0000000000000E-01  9.9066770822167E-02  1.4783352282912E+00
52  5.1000000000000E-01  1.3286717212206E-01  1.4643108689975E+00
53  5.2000000000000E-01  1.6807934314642E-01  1.4480867166617E+00
54  5.3000000000000E-01  2.0470234644687E-01  1.4296741911697E+00
55  5.4000000000000E-01  2.4272988194974E-01  1.4090905179489E+00
56  5.5000000000000E-01  2.8214942269693E-01  1.3863590218320E+00
57  5.6000000000000E-01  3.2294135148200E-01  1.3615094027614E+00
58  5.7000000000000E-01  3.6507811077531E-01  1.3345779891932E+00
59  5.8000000000000E-01  4.0852337874869E-01  1.3056079650418E+00
60  5.9000000000000E-01  4.5323128447751E-01  1.2746495660278E+00
61  6.0000000000000E-01  4.9914567550911E-01  1.2417602413696E+00
62  6.1000000000000E-01  5.4619945093049E-01  1.2070047768823E+00
63  6.2000000000000E-01  5.9431397284414E-01  1.1704553757286E+00
64  6.3000000000000E-01  6.4339856876311E-01  1.1321916932929E+00
65  6.4000000000000E-01  6.9335013686085E-01  1.0923008229363E+00
66  6.5000000000000E-01  7.4405286526970E-01  1.0508772297183E+00
67  6.6000000000000E-01  7.9537807570070E-01  1.0080226295568E+00
68  6.7000000000000E-01  8.4718420057760E-01  9.6384581172673E-01
69  6.8000000000000E-01  8.9931690164237E-01  9.1846240306669E-01
70  6.9000000000000E-01  9.5160933660192E-01  8.7199457278147E-01
71  7.0000000000000E-01  1.0038825788680E+00  8.2457067727171E-01
72  7.1000000000000E-01  1.0559461938027E+00  7.7632484500489E-01
73  7.2000000000000E-01  1.1075989731436E+00  7.2739650204343E-01
74  7.3000000000000E-01  1.1586298274515E+00  6.7792983947072E-01
75  7.4000000000000E-01  1.2088188345345E+00  6.2807322459217E-01
76  7.5000000000000E-01  1.2579384398640E+00  5.7797855842937E-01
77  7.6000000000000E-01  1.3057548030446E+00  5.2780058266607E-01
78  7.7000000000000E-01  1.3520292824431E+00  4.7769613983639E-01
79  7.8000000000000E-01  1.3965200481529E+00  4.2782339116053E-01
80  7.9000000000000E-01  1.4389838115999E+00  3.7834099702240E-01
81  8.0000000000000E-01  1.4791776582838E+00  3.2940726564507E-01
82  8.1000000000000E-01  1.5168609684569E+00  2.8117927603740E-01
83  8.2000000000000E-01  1.5517974089610E+00  2.3381198175920E-01
84  8.3000000000000E-01  1.5837569780109E+00  1.8745730247197E-01
85  8.4000000000000E-01  1.6125180834515E+00  1.4226321060227E-01
86  8.5000000000000E-01  1.6378696339384E+00  9.8372820739471E-02
87  8.6000000000000E-01  1.6596131216238E+00  5.5923489612659E-02
88  8.7000000000000E-01  1.6775646742783E+00  1.5045934640170E-02
89  8.8000000000000E-01  1.6915570543708E+00 -2.4136620886472E-02
90  8.9000000000000E-01  1.7014415824601E+00 -6.1509267935394E-02
91  9.0000000000000E-01  1.7070899623381E+00 -9.6966189232665E-02
92  9.1000000000000E-01  1.7083959857167E+00 -1.3041138635729E-01
93  9.2000000000000E-01  1.7052770948528E+00 -1.6175934893183E-01
94  9.3000000000000E-01  1.6976757823781E+00 -1.9093565875880E-01
95  9.4000000000000E-01  1.6855608087276E+00 -2.1787752219036E-01
96  9.5000000000000E-01  1.6689282189189E+00 -2.4253422452580E-01
97  9.6000000000000E-01  1.6478021420502E+00 -2.6486750082391E-01
98  9.7000000000000E-01  1.6222353587155E+00 -2.8485181817527E-01
99  9.8000000000000E-01  1.5923096235591E+00 -3.0247456519904E-01
100  9.9000000000000E-01  1.5581357324112E+00 -3.1773614530869E-01
101  1.0000000000000E+00  1.5198533258240E+00 -3.3064997111902E-01
102  1.0100000000000E+00  1.4776304233238E+00 -3.4124235823079E-01
103  1.0200000000000E+00  1.4316626853873E+00 -3.4955231755458E-01
104  1.0300000000000E+00  1.3821724026759E+00 -3.5563124619902E-01
105  1.0400000000000E+00  1.3294072150088E+00 -3.5954251795172E-01
106  1.0500000000000E+00  1.2736385651881E+00 -3.6136097527388E-01
107  1.0600000000000E+00  1.2151598955552E+00 -3.6117232566363E-01
108  1.0700000000000E+00  1.1542845978999E+00 -3.5907244616757E-01
109  1.0800000000000E+00  1.0913437298636E+00 -3.5516660066579E-01
110  1.0900000000000E+00  1.0266835134812E+00 -3.4956857539676E-01
111  1.1000000000000E+00  9.6066263397223E-01 -3.4239973901149E-01
112  1.1100000000000E+00  8.9364935889785E-01 -3.3378803411970E-01
113  1.1200000000000E+00  8.2601849994773E-01 -3.2386690800539E-01
114  1.1300000000000E+00  7.5814824102023E-01 -3.1277419065860E-01
115  1.1400000000000E+00  6.9041685819404E-01 -3.0065092891499E-01
116  1.1500000000000E+00  6.2319935806589E-01 -2.8764018578903E-01
117  1.1600000000000E+00  5.5686406195597E-01 -2.7388581443222E-01
118  1.1700000000000E+00  4.9176916403076E-01 -2.5953121633196E-01
119  1.1800000000000E+00  4.2825929186726E-01 -2.4471809353194E-01
120  1.1900000000000E+00  3.6666209774982E-01 -2.2958520458361E-01
121  1.2000000000000E+00  3.0728490867210E-01 -2.1426713384079E-01
122  1.2100000000000E+00  2.5041146262383E-01 -1.9889308358962E-01
123  1.2200000000000E+00  1.9629875159725E-01 -1.8358569679835E-01
124  1.2300000000000E+00  1.4517399666189E-01 -1.6845991871828E-01
125  1.2400000000000E+00  9.7231972385152E-02 -1.5362195164791E-01
126  1.2500000000000E+00  5.2631994600113E-02 -1.3916814463347E-01
127  1.2600000000000E+00  1.1495210063160E-02 -1.2518397839177E-01
128  1.2700000000000E+00 -2.6091831378688E-02 -1.1174444410940E-01
129  1.2800000000000E+00 -6.0073087557160E-02 -9.8914674850255E-02
130  1.2900000000000E+00 -9.0418522479200E-02 -8.6750785509523E-02
131  1.3000000000000E+00 -1.1712518241528E-01 -7.5299550097237E-02
132  1.3100000000000E+00 -1.4021716786527E-01 -6.4598353185341E-02
133  1.3200000000000E+00 -1.5974520082913E-01 -5.4675251247637E-02
134  1.3300000000000E+00 -1.7578603127726E-01 -4.5549101718582E-02
135  1.3400000000000E+00 -1.8844159860183E-01 -3.7229773675679E-02
136  1.3500000000000E+00 -1.9783793280637E-01 -2.9718443193412E-02
137  1.3600000000000E+00 -2.0412383268848E-01 -2.3007963951624E-02
138  1.3700000000000E+00 -2.0746931766107E-01 -1.7083312672159E-02
139  1.3800000000000E+00 -2.0806385228558E-01 -1.1922108615681E-02
140  1.3900000000000E+00 -2.0611438930065E-01 -7.4951946700100E-03
141  1.4000000000000E+00 -2.0184324385724E-01 -3.7672752967790E-03
142  1.4100000000000E+00 -1.9548580330062E-01 -6.9760890300054E-04
143  1.4200000000000E+00 -1.8728810905084E-01  1.7592562564914E-03
144  1.4300000000000E+00 -1.7750433055477E-01  3.6527091886910E-03
145  1.4400000000000E+00 -1.6639415651936E-01  5.0352744289793E-03
146  1.4500000000000E+00 -1.5422013153973E-01  5.9617903738719E-03
147  1.4600000000000E+00 -1.4124495725684E-01  6.4885741656379E-03
148  1.4700000000000E+00 -1.2772879335546E-01  6.6725840412177E-03
149  1.4800000000000E+00 -1.1392659040953E-01  6.5705890803527E-03
150  1.4900000000000E+00 -1.0008546877984E-01  6.2383516452168E-03
151  1.5000000000000E+00 -8.6442168979969E-02  5.7298305807413E-03
152  1.5100000000000E+00 -7.3220617161470E-02  5.0964183889113E-03
153  1.5200000000000E+00 -6.0629617690783E-02  4.3862165597627E-03
154  1.5300000000000E+00 -4.8860699017446E-02  3.6433577161897E-03
155  1.5400000000000E+00 -3.8086132176936E-02  2.9073804373062E-03
156  1.5500000000000E+00 -2.8457149128731E-02  2.2126654873775E-03
157  1.5600000000000E+00 -2.0107160197648E-02  1.5883333531266E-03
158  1.5700000000000E+00 -1.3130032102680E-02  1.0561320526847E-03
159  1.5800000000000E+00 -7.5741040573911E-03  6.2918464786577E-04
160  1.5900000000000E+00 -3.5873686872056E-03  3.2606481321616E-04
161  1.6000000000000E+00 -1.2699366779170E-03  1.5808201251649E-04
162  1.6100000000000E+00 -2.5782216441094E-04  8.0826096560068E-05
163  1.6200000000000E+00  2.3314540518502E-05  3.1751374374813E-05
164  1.6300000000000E+00  2.4199425936293E-06  8.0221408289292E-07
165  1.6400000000000E+00 -2.1821055364695E-05 -4.7344020565308E-06
166  1.6500000000000E+00  2.4746101790626E-08  1.2595615243216E-08
167  1.6600000000000E+00  3.0385078659330E-06  1.2037948221704E-06
168  1.6700000000000E+00  2.7377912930571E-08 -1.0105015304057E-08
169  1.6800000000000E+00  5.7578903940865E-07 -2.1252010954553E-07
170  1.6900000000000E+00  0.0000000000000E+00  0.0000000000000E+00
171  1.7000000000000E+00  0.0000000000000E+00  0.0000000000000E+00
172  1.7100000000000E+00  0.0000000000000E+00  0.0000000000000E+00
173  1.7200000000000E+00  0.0000000000000E+00  0.0000000000000E+00
174  1.7300000000000E+00  0.0000000000000E+00  0.0000000000000E+00
175  1.7400000000000E+00  0.0000000000000E+00  0.0000000000000E+00
176  1.7500000000000E+00  0.0000000000000E+00  0.0000000000000E+00
177  1.7600000000000E+00  0.0000000000000E+00  0.0000000000000E+00
178  1.7700000000000E+00  0.0000000000000E+00  0.0000000000000E+00
179  1.7800000000000E+00  0.0000000000000E+00  0.0000000000000E+00
180  1.7900000000000E+00  0.0000000000000E+00  0.0000000000000E+00
181  1.8000000000000E+00  0.0000000000000E+00  0.0000000000000E+00
182  1.8100000000000E+00  0.0000000000000E+00  0.0000000000000E+00
183  1.8200000000000E+00  0.0000000000000E+00  0.0000000000000E+00
184  1.8300000000000E+00  0.0000000000000E+00  0.0000000000000E+00
185  1.8400000000000E+00  0.0000000000000E+00  0.0000000000000E+00
186  1.8500000000000E+00  0.0000000000000E+00  0.0000000000000E+00
187  1.8600000000000E+00  0.0000000000000E+00  0.0000000000000E+00
188  1.8700000000000E+00  0.0000000000000E+00  0.0000000000000E+00
189  1.8800000000000E+00  0.0000000000000E+00  0.0000000000000E+00
190  1.8900000000000E+00  0.0000000000000E+00  0.0000000000000E+00
191  1.9000000000000E+00  0.0000000000000E+00  0.0000000000000E+00
192  1.9100000000000E+00  0.0000000000000E+00  0.0000000000000E+00
193  1.9200000000000E+00  0.0000000000000E+00  0.0000000000000E+00
194  1.9300000000000E+00  0.0000000000000E+00  0.0000000000000E+00
195  1.9400000000000E+00  0.0000000000000E+00  0.0000000000000E+00
196  1.9500000000000E+00  0.0000000000000E+00  0.0000000000000E+00
197  1.9600000000000E+00  0.0000000000000E+00  0.0000000000000E+00
198  1.9700000000000E+00  0.0000000000000E+00  0.0000000000000E+00
199  1.9800000000000E+00  0.0000000000000E+00  0.0000000000000E+00
200  1.9900000000000E+00  0.0000000000000E+00  0.0000000000000E+00
201  2.0000000000000E+00  0.0000000000000E+00  0.0000000000000E+00
202  2.0100000000000E+00  0.0000000000000E+00  0.0000000000000E+00
203  2.0200000000000E+00  0.0000000000000E+00  0.0000000000000E+00
204  2.0300000000000E+00  0.0000000000000E+00  0.0000000000000E+00
205  2.0400000000000E+00  0.0000000000000E+00  0.0000000000000E+00
206  2.0500000000000E+00  0.0000000000000E+00  0.0000000000000E+00
207  2.0600000000000E+00  0.0000000000000E+00  0.0000000000000E+00
208  2.0700000000000E+00  0.0000000000000E+00  0.0000000000000E+00
209  2.0800000000000E+00  0.0000000000000E+00  0.0000000000000E+00
210  2.0900000000000E+00  0.0000000000000E+00  0.0000000000000E+00
211  2.1000000000000E+00  0.0000000000000E+00  0.0000000000000E+00
212  2.1100000000000E+00  0.0000000000000E+00  0.0000000000000E+00
213  2.1200000000000E+00  0.0000000000000E+00  0.0000000000000E+00
214  2.1300000000000E+00  0.0000000000000E+00  0.0000000000000E+00
215  2.1400000000000E+00  0.0000000000000E+00  0.0000000000000E+00
216  2.1500000000000E+00  0.0000000000000E+00  0.0000000000000E+00
217  2.1600000000000E+00  0.0000000000000E+00  0.0000000000000E+00
218  2.1700000000000E+00  0.0000000000000E+00  0.0000000000000E+00
219  2.1800000000000E+00  0.0000000000000E+00  0.0000000000000E+00
220  2.1900000000000E+00  0.0000000000000E+00  0.0000000000000E+00
221  2.2000000000000E+00  0.0000000000000E+00  0.0000000000000E+00
222  2.2100000000000E+00  0.0000000000000E+00  0.0000000000000E+00
223  2.2200000000000E+00  0.0000000000000E+00  0.0000000000000E+00
224  2.2300000000000E+00  0.0000000000000E+00  0.0000000000000E+00
225  2.2400000000000E+00  0.0000000000000E+00  0.0000000000000E+00
226  2.2500000000000E+00  0.0000000000000E+00  0.0000000000000E+00
227  2.2600000000000E+00  0.0000000000000E+00  0.0000000000000E+00
228  2.2700000000000E+00  0.0000000000000E+00  0.0000000000000E+00
229  2.2800000000000E+00  0.0000000000000E+00  0.0000000000000E+00
230  2.2900000000000E+00  0.0000000000000E+00  0.0000000000000E+00
231  2.3000000000000E+00  0.0000000000000E+00  0.0000000000000E+00
232  2.3100000000000E+00  0.0000000000000E+00  0.0000000000000E+00
233  2.3200000000000E+00  0.0000000000000E+00  0.0000000000000E+00
234  2.3300000000000E+00  0.0000000000000E+00  0.0000000000000E+00
235  2.3400000000000E+00  0.0000000000000E+00  0.0000000000000E+00
236  2.3500000000000E+00  0.0000000000000E+00  0.0000000000000E+00
237  2.3600000000000E+00  0.0000000000000E+00  0.0000000000000E+00
238  2.3700000000000E+00  0.0000000000000E+00  0.0000000000000E+00
239  2.3800000000000E+00  0.0000000000000E+00  0.0000000000000E+00
240  2.3900000000000E+00  0.0000000000000E+00  0.0000000000000E+00
241  2.4000000000000E+00  0.0000000000000E+00  0.0000000000000E+00
242  2.4100000000000E+00  0.0000000000000E+00  0.0000000000000E+00
243  2.4200000000000E+00  0.0000000000000E+00  0.0000000000000E+00
244  2.4300000000000E+00  0.0000000000000E+00  0.0000000000000E+00
245  2.4400000000000E+00  0.0000000000000E+00  0.0000000000000E+00
246  2.4500000000000E+00  0.0000000000000E+00  0.0000000000000E+00
247  2.4600000000000E+00  0.0000000000000E+00  0.0000000000000E+00
248  2.4700000000000E+00  0.0000000000000E+00  0.0000000000000E+00
249  2.4800000000000E+00  0.0000000000000E+00  0.0000000000000E+00
250  2.4900000000000E+00  0.0000000000000E+00  0.0000000000000E+00
251  2.5000000000000E+00  0.0000000000000E+00  0.0000000000000E+00
252  2.5100000000000E+00  0.0000000000000E+00  0.0000000000000E+00
253  2.5200000000000E+00  0.0000000000000E+00  0.0000000000000E+00
254  2.5300000000000E+00  0.0000000000000E+00  0.0000000000000E+00
255  2.5400000000000E+00  0.0000000000000E+00  0.0000000000000E+00
256  2.5500000000000E+00  0.0000000000000E+00  0.0000000000000E+00
257  2.5600000000000E+00  0.0000000000000E+00  0.0000000000000E+00
258  2.5700000000000E+00  0.0000000000000E+00  0.0000000000000E+00
259  2.5800000000000E+00  0.0000000000000E+00  0.0000000000000E+00
260  2.5900000000000E+00  0.0000000000000E+00  0.0000000000000E+00
261  2.6000000000000E+00  0.0000000000000E+00  0.0000000000000E+00
262  2.6100000000000E+00  0.0000000000000E+00  0.0000000000000E+00
263  2.6200000000000E+00  0.0000000000000E+00  0.0000000000000E+00
264  2.6300000000000E+00  0.0000000000000E+00  0.0000000000000E+00
265  2.6400000000000E+00  0.0000000000000E+00  0.0000000000000E+00
266  2.6500000000000E+00  0.0000000000000E+00  0.0000000000000E+00
267  2.6600000000000E+00  0.0000000000000E+00  0.0000000000000E+00
268  2.6700000000000E+00  0.0000000000000E+00  0.0000000000000E+00
269  2.6800000000000E+00  0.0000000000000E+00  0.0000000000000E+00
270  2.6900000000000E+00  0.0000000000000E+00  0.0000000000000E+00
271  2.7000000000000E+00  0.0000000000000E+00  0.0000000000000E+00
272  2.7100000000000E+00  0.0000000000000E+00  0.0000000000000E+00
273  2.7200000000000E+00  0.0000000000000E+00  0.0000000000000E+00
274  2.7300000000000E+00  0.0000000000000E+00  0.0000000000000E+00
275  2.7400000000000E+00  0.0000000000000E+00  0.0000000000000E+00
276  2.7500000000000E+00  0.0000000000000E+00  0.0000000000000E+00
277  2.7600000000000E+00  0.0000000000000E+00  0.0000000000000E+00
278  2.7700000000000E+00  0.0000000000000E+00  0.0000000000000E+00
279  2.7800000000000E+00  0.0000000000000E+00  0.0000000000000E+00
280  2.7900000000000E+00  0.0000000000000E+00  0.0000000000000E+00
281  2.8000000000000E+00  0.0000000000000E+00  0.0000000000000E+00
282  2.8100000000000E+00  0.0000000000000E+00  0.0000000000000E+00
283  2.8200000000000E+00  0.0000000000000E+00  0.0000000000000E+00
284  2.8300000000000E+00  0.0000000000000E+00  0.0000000000000E+00
285  2.8400000000000E+00  0.0000000000000E+00  0.0000000000000E+00
286  2.8500000000000E+00  0.0000000000000E+00  0.0000000000000E+00
287  2.8600000000000E+00  0.0000000000000E+00  0.0000000000000E+00
288  2.8700000000000E+00  0.0000000000000E+00  0.0000000000000E+00
289  2.8800000000000E+00  0.0000000000000E+00  0.0000000000000E+00
290  2.8900000000000E+00  0.0000000000000E+00  0.0000000000000E+00
291  2.9000000000000E+00  0.0000000000000E+00  0.0000000000000E+00
292  2.9100000000000E+00  0.0000000000000E+00  0.0000000000000E+00
293  2.9200000000000E+00  0.0000000000000E+00  0.0000000000000E+00
294  2.9300000000000E+00  0.0000000000000E+00  0.0000000000000E+00
295  2.9400000000000E+00  0.0000000000000E+00  0.0000000000000E+00
296  2.9500000000000E+00  0.0000000000000E+00  0.0000000000000E+00
297  2.9600000000000E+00  0.0000000000000E+00  0.0000000000000E+00
298  2.9700000000000E+00  0.0000000000000E+00  0.0000000000000E+00
299  2.9800000000000E+00  0.0000000000000E+00  0.0000000000000E+00
300  2.9900000000000E+00  0.0000000000000E+00  0.0000000000000E+00
301  3.0000000000000E+00  0.0000000000000E+00  0.0000000000000E+00
302  3.0100000000000E+00  0.0000000000000E+00  0.0000000000000E+00
303  3.0200000000000E+00  0.0000000000000E+00  0.0000000000000E+00
304  3.0300000000000E+00  0.0000000000000E+00  0.0000000000000E+00
305  3.0400000000000E+00  0.0000000000000E+00  0.0000000000000E+00
306  3.0500000000000E+00  0.0000000000000E+00  0.0000000000000E+00
307  3.0600000000000E+00  0.0000000000000E+00  0.0000000000000E+00
308  3.0700000000000E+00  0.0000000000000E+00  0.0000000000000E+00
309  3.0800000000000E+00  0.0000000000000E+00  0.0000000000000E+00
310  3.0900000000000E+00  0.0000000000000E+00  0.0000000000000E+00
311  3.1000000000000E+00  0.0000000000000E+00  0.0000000000000E+00
312  3.1100000000000E+00  0.0000000000000E+00  0.0000000000000E+00
313  3.1200000000000E+00  0.0000000000000E+00  0.0000000000000E+00
314  3.1300000000000E+00  0.0000000000000E+00  0.0000000000000E+00
315  3.1400000000000E+00  0.0000000000000E+00  0.0000000000000E+00
316  3.1500000000000E+00  0.0000000000000E+00  0.0000000000000E+00
317  3.1600000000000E+00  0.0000000000000E+00  0.0000000000000E+00
318  3.1700000000000E+00  0.0000000000000E+00  0.0000000000000E+00
319  3.1800000000000E+00  0.0000000000000E+00  0.0000000000000E+00
320  3.1900000000000E+00  0.0000000000000E+00  0.0000000000000E+00
321  3.2000000000000E+00  0.0000000000000E+00  0.0000000000000E+00
322  3.2100000000000E+00  0.0000000000000E+00  0.0000000000000E+00
323  3.2200000000000E+00  0.0000000000000E+00  0.0000000000000E+00
324  3.2300000000000E+00  0.0000000000000E+00  0.0000000000000E+00
325  3.2400000000000E+00  0.0000000000000E+00  0.0000000000000E+00
326  3.2500000000000E+00  0.0000000000000E+00  0.0000000000000E+00
327  3.2600000000000E+00  0.0000000000000E+00  0.0000000000000E+00
328  3.2700000000000E+00  0.0000000000000E+00  0.0000000000000E+00
329  3.2800000000000E+00  0.0000000000000E+00  0.0000000000000E+00
330  3.2900000000000E+00  0.0000000000000E+00  0.0000000000000E+00
331  3.3000000000000E+00  0.0000000000000E+00  0.0000000000000E+00
332  3.3100000000000E+00  0.0000000000000E+00  0.0000000000000E+00
333  3.3200000000000E+00  0.0000000000000E+00  0.0000000000000E+00
334  3.3300000000000E+00  0.0000000000000E+00  0.0000000000000E+00
335  3.3400000000000E+00  0.0000000000000E+00  0.0000000000000E+00
336  3.3500000000000E+00  0.0000000000000E+00  0.0000000000000E+00
337  3.3600000000000E+00  0.0000000000000E+00  0.0000000000000E+00
338  3.3700000000000E+00  0.0000000000000E+00  0.0000000000000E+00
339  3.3800000000000E+00  0.0000000000000E+00  0.0000000000000E+00
340  3.3900000000000E+00  0.0000000000000E+00  0.0000000000000E+00
341  3.4000000000000E+00  0.0000000000000E+00  0.0000000000000E+00
342  3.4100000000000E+00  0.0000000000000E+00  0.0000000000000E+00
343  3.4200000000000E+00  0.0000000000000E+00  0.0000000000000E+00
344  3.4300000000000E+00  0.0000000000000E+00  0.0000000000000E+00
345  3.4400000000000E+00  0.0000000000000E+00  0.0000000000000E+00
346  3.4500000000000E+00  0.0000000000000E+00  0.0000000000000E+00
347  3.4600000000000E+00  0.0000000000000E+00  0.0000000000000E+00
348  3.4700000000000E+00  0.0000000000000E+00  0.0000000000000E+00
349  3.4800000000000E+00  0.0000000000000E+00  0.0000000000000E+00
350  3.4900000000000E+00  0.0000000000000E+00  0.0000000000000E+00
351  3.5000000000000E+00  0.0000000000000E+00  0.0000000000000E+00
352  3.5100000000000E+00  0.0000000000000E+00  0.0000000000000E+00
353  3.5200000000000E+00  0.0000000000000E+00  0.0000000000000E+00
354  3.5300000000000E+00  0.0000000000000E+00  0.0000000000000E+00
355  3.5400000000000E+00  0.0000000000000E+00  0.0000000000000E+00
356  3.5500000000000E+00  0.0000000000000E+00  0.0000000000000E+00
357  3.5600000000000E+00  0.0000000000000E+00  0.0000000000000E+00
358  3.5700000000000E+00  0.0000000000000E+00  0.0000000000000E+00
359  3.5800000000000E+00  0.0000000000000E+00  0.0000000000000E+00
360  3.5900000000000E+00  0.0000000000000E+00  0.0000000000000E+00
361  3.6000000000000E+00  0.0000000000000E+00  0.0000000000000E+00
362  3.6100000000000E+00  0.0000000000000E+00  0.0000000000000E+00
363  3.6200000000000E+00  0.0000000000000E+00  0.0000000000000E+00
364  3.6300000000000E+00  0.0000000000000E+00  0.0000000000000E+00
365  3.6400000000000E+00  0.0000000000000E+00  0.0000000000000E+00
366  3.6500000000000E+00  0.0000000000000E+00  0.0000000000000E+00
367  3.6600000000000E+00  0.0000000000000E+00  0.0000000000000E+00
368  3.6700000000000E+00  0.0000000000000E+00  0.0000000000000E+00
369  3.6800000000000E+00  0.0000000000000E+00  0.0000000000000E+00
370  3.6900000000000E+00  0.0000000000000E+00  0.0000000000000E+00
371  3.7000000000000E+00  0.0000000000000E+00  0.0000000000000E+00
372  3.7100000000000E+00  0.0000000000000E+00  0.0000000000000E+00
373  3.7200000000000E+00  0.0000000000000E+00  0.0000000000000E+00
374  3.7300000000000E+00  0.0000000000000E+00  0.0000000000000E+00
375  3.7400000000000E+00  0.0000000000000E+00  0.0000000000000E+00
376  3.7500000000000E+00  0.0000000000000E+00  0.0000000000000E+00
377  3.7600000000000E+00  0.0000000000000E+00  0.0000000000000E+00
378  3.7700000000000E+00  0.0000000000000E+00  0.0000000000000E+00
379  3.7800000000000E+00  0.0000000000000E+00  0.0000000000000E+00
380  3.7900000000000E+00  0.0000000000000E+00  0.0000000000000E+00
381  3.8000000000000E+00  0.0000000000000E+00  0.0000000000000E+00
382  3.8100000000000E+00  0.0000000000000E+00  0.0000000000000E+00
383  3.8200000000000E+00  0.0000000000000E+00  0.0000000000000E+00
384  3.8300000000000E+00  0.0000000000000E+00  0.0000000000000E+00
385  3.8400000000000E+00  0.0000000000000E+00  0.0000000000000E+00
386  3.8500000000000E+00  0.0000000000000E+00  0.0000000000000E+00
387  3.8600000000000E+00  0.0000000000000E+00  0.0000000000000E+00
388  3.8700000000000E+00  0.0000000000000E+00  0.0000000000000E+00
389  3.8800000000000E+00  0.0000000000000E+00  0.0000000000000E+00
390  3.8900000000000E+00  0.0000000000000E+00  0.0000000000000E+00
391  3.9000000000000E+00  0.0000000000000E+00  0.0000000000000E+00
392  3.9100000000000E+00  0.0000000000000E+00  0.0000000000000E+00
393  3.9200000000000E+00  0.0000000000000E+00  0.0000000000000E+00
394  3.9300000000000E+00  0.0000000000000E+00  0.0000000000000E+00
395  3.9400000000000E+00  0.0000000000000E+00  0.0000000000000E+00
396  3.9500000000000E+00  0.0000000000000E+00  0.0000000000000E+00
397  3.9600000000000E+00  0.0000000000000E+00  0.0000000000000E+00
398  3.9700000000000E+00  0.0000000000000E+00  0.0000000000000E+00
399  3.9800000000000E+00  0.0000000000000E+00  0.0000000000000E+00
400  3.9900000000000E+00  0.0000000000000E+00  0.0000000000000E+00
401  4.0000000000000E+00  0.0000000000000E+00  0.0000000000000E+00
402  4.0100000000000E+00  0.0000000000000E+00  0.0000000000000E+00
403  4.0200000000000E+00  0.0000000000000E+00  0.0000000000000E+00
404  4.0300000000000E+00  0.0000000000000E+00  0.0000000000000E+00
405  4.0400000000000E+00  0.0000000000000E+00  0.0000000000000E+00
406  4.0500000000000E+00  0.0000000000000E+00  0.0000000000000E+00
407  4.0600000000000E+00  0.0000000000000E+00  0.0000000000000E+00
408  4.0700000000000E+00  0.0000000000000E+00  0.0000000000000E+00
409  4.0800000000000E+00  0.0000000000000E+00  0.0000000000000E+00
410  4.0900000000000E+00  0.0000000000000E+00  0.0000000000000E+00
411  4.1000000000000E+00  0.0000000000000E+00  0.0000000000000E+00
412  4.1100000000000E+00  0.0000000000000E+00  0.0000000000000E+00
413  4.1200000000000E+00  0.0000000000000E+00  0.0000000000000E+00
414  4.1300000000000E+00  0.0000000000000E+00  0.0000000000000E+00
415  4.1400000000000E+00  0.0000000000000E+00  0.0000000000000E+00
416  4.1500000000000E+00  0.0000000000000E+00  0.0000000000000E+00
417  4.1600000000000E+00  0.0000000000000E+00  0.0000000000000E+00
418  4.1700000000000E+00  0.0000000000000E+00  0.0000000000000E+00
419  4.1800000000000E+00  0.0000000000000E+00  0.0000000000000E+00
420  4.1900000000000E+00  0.0000000000000E+00  0.0000000000000E+00
421  4.2000000000000E+00  0.0000000000000E+00  0.0000000000000E+00
422  4.2100000000000E+00  0.0000000000000E+00  0.0000000000000E+00
423  4.2200000000000E+00  0.0000000000000E+00  0.0000000000000E+00
424  4.2300000000000E+00  0.0000000000000E+00  0.0000000000000E+00
425  4.2400000000000E+00  0.0000000000000E+00  0.0000000000000E+00
426  4.2500000000000E+00  0.0000000000000E+00  0.0000000000000E+00
427  4.2600000000000E+00  0.0000000000000E+00  0.0000000000000E+00
428  4.2700000000000E+00  0.0000000000000E+00  0.0000000000000E+00
429  4.2800000000000E+00  0.0000000000000E+00  0.0000000000000E+00
430  4.2900000000000E+00  0.0000000000000E+00  0.0000000000000E+00
431  4.3000000000000E+00  0.0000000000000E+00  0.0000000000000E+00
432  4.3100000000000E+00  0.0000000000000E+00  0.0000000000000E+00
433  4.3200000000000E+00  0.0000000000000E+00  0.0000000000000E+00
434  4.3300000000000E+00  0.0000000000000E+00  0.0000000000000E+00
435  4.3400000000000E+00  0.0000000000000E+00  0.0000000000000E+00
436  4.3500000000000E+00  0.0000000000000E+00  0.0000000000000E+00
437  4.3600000000000E+00  0.0000000000000E+00  0.0000000000000E+00
438  4.3700000000000E+00  0.0000000000000E+00  0.0000000000000E+00
439  4.3800000000000E+00  0.0000000000000E+00  0.0000000000000E+00
440  4.3900000000000E+00  0.0000000000000E+00  0.0000000000000E+00
441  4.4000000000000E+00  0.0000000000000E+00  0.0000000000000E+00
442  4.4100000000000E+00  0.0000000000000E+00  0.0000000000000E+00
443  4.4200000000000E+00  0.0000000000000E+00  0.0000000000000E+00