Pt    ONCVPSP-3.3.0  r_core=   1.45722   1.45722   1.45722   1.91724
78.0000     18.0000      180424    zatom,zion,pspd
8      11   3     4   500     0    pspcod,pspxc,lmax,lloc,mmax,r2well
4.99000000  0.00000000  0.00000000    rchrg fchrg qchrg
2     4     4     4    nproj
3     1           extension_switch
4     4     4    nprojso
0                         1.7122328653603E+00  1.7832780406511E+01
1  0.0000000000000E+00  1.9893559022321E-10 -3.6677272330365E-10
2  1.0000000000000E-02 -2.0054176828417E-02  8.1557866866688E-02
3  2.0000000000000E-02 -3.9995629616904E-02  1.6291563000602E-01
4  3.0000000000000E-02 -5.9711896826668E-02  2.4387383104357E-01
5  4.0000000000000E-02 -7.9091027036939E-02  3.2423429519594E-01
6  5.0000000000000E-02 -9.8021810033052E-02  4.0380075798341E-01
7  6.0000000000000E-02 -1.1639399290352E-01  4.8237947688158E-01
8  7.0000000000000E-02 -1.3409848293583E-01  5.5977982472910E-01
9  8.0000000000000E-02 -1.5102753929958E-01  6.3581486207477E-01
10  9.0000000000000E-02 -1.6707495569666E-01  7.1030188603210E-01
11  1.0000000000000E-01 -1.8213623633365E-01  7.8306295360409E-01
12  1.1000000000000E-01 -1.9610876772458E-01  8.5392537783985E-01
13  1.2000000000000E-01 -2.0889198895564E-01  9.2272219558068E-01
14  1.3000000000000E-01 -2.2038756313151E-01  9.8929260594054E-01
15  1.4000000000000E-01 -2.3049955277090E-01  1.0534823790380E+00
16  1.5000000000000E-01 -2.3913460192183E-01  1.1151442348494E+00
17  1.6000000000000E-01 -2.4620212772128E-01  1.1741381923794E+00
18  1.7000000000000E-01 -2.5161452402778E-01  1.2303318896444E+00
19  1.8000000000000E-01 -2.5528737960590E-01  1.2836008752269E+00
20  1.9000000000000E-01 -2.5713971313866E-01  1.3338288723898E+00
21  2.0000000000000E-01 -2.5709422708781E-01  1.3809080169273E+00
22  2.1000000000000E-01 -2.5507758211295E-01  1.4247390700779E+00
23  2.2000000000000E-01 -2.5102069340174E-01  1.4652316079341E+00
24  2.3000000000000E-01 -2.4485904985653E-01  1.5023041888462E+00
25  2.4000000000000E-01 -2.3653305663322E-01  1.5358845003395E+00
26  2.5000000000000E-01 -2.2598840103781E-01  1.5659094870475E+00
27  2.6000000000000E-01 -2.1317644126407E-01  1.5923254611017E+00
28  2.7000000000000E-01 -1.9805461690407E-01  1.6150881963239E+00
29  2.8000000000000E-01 -1.8058687959153E-01  1.6341630074309E+00
30  2.9000000000000E-01 -1.6074414155254E-01  1.6495248153014E+00
31  3.0000000000000E-01 -1.3850473924570E-01  1.6611581991546E+00
32  3.1000000000000E-01 -1.1385490868441E-01  1.6690574362787E+00
33  3.2000000000000E-01 -8.6789268454388E-02  1.6732265297019E+00
34  3.3000000000000E-01 -5.7311305878876E-02  1.6736792239498E+00
35  3.4000000000000E-01 -2.5433861251846E-02  1.6704390087662E+00
36  3.5000000000000E-01  8.8203954374118E-03  1.6635391104027E+00
37  3.6000000000000E-01  4.5418501315771E-02  1.6530224698173E+00
38  3.7000000000000E-01  8.4316757399505E-02  1.6389417068528E+00
39  3.8000000000000E-01  1.2546031209195E-01  1.6213590692171E+00
40  3.9000000000000E-01  1.6878277843601E-01  1.6003463648463E+00
41  4.0000000000000E-01  2.1420589234482E-01  1.5759848760177E+00
42  4.1000000000000E-01  2.6163921914348E-01  1.5483652533912E+00
43  4.2000000000000E-01  3.1097991577890E-01  1.5175873879933E+00
44  4.3000000000000E-01  3.6211255598447E-01  1.4837602590414E+00
45  4.4000000000000E-01  4.1490902552204E-01  1.4470017554123E+00
46  4.5000000000000E-01  4.6922849436040E-01  1.4074384685217E+00
47  4.6000000000000E-01  5.2491747228561E-01  1.3652054543793E+00
48  4.7000000000000E-01  5.8180995397522E-01  1.3204459626312E+00
49  4.8000000000000E-01  6.3972765900550E-01  1.2733111305004E+00
50  4.9000000000000E-01  6.9848037159963E-01  1.2239596396776E+00
51  5.0000000000000E-01  7.5786638417064E-01  1.1725573344118E+00
52  5.1000000000000E-01  8.1767304786933E-01  1.1192767992908E+00
53  5.2000000000000E-01  8.7767743241915E-01  1.0642968954924E+00
54  5.3000000000000E-01  9.3764709651698E-01  1.0078022546237E+00
55  5.4000000000000E-01  9.9734096900794E-01  9.4998272963991E-01
56  5.5000000000000E-01  1.0565103399112E+00  8.9103280275573E-01
57  5.6000000000000E-01  1.1148999591983E+00  8.3115095070808E-01
58  5.7000000000000E-01  1.1722492400114E+00  7.7053896821498E-01
59  5.8000000000000E-01  1.2282935617719E+00  7.0940125097873E-01
60  5.9000000000000E-01  1.2827656673864E+00  6.4794404010682E-01
61  6.0000000000000E-01  1.3353971475099E+00  5.8637463036193E-01
62  6.1000000000000E-01  1.3859200036080E+00  5.2490054519416E-01
63  6.2000000000000E-01  1.4340682803659E+00  4.6372868205037E-01
64  6.3000000000000E-01  1.4795797568502E+00  4.0306443198904E-01
65  6.4000000000000E-01  1.5221976847574E+00  3.4311077814314E-01
66  6.5000000000000E-01  1.5616725610743E+00  2.8406737806886E-01
67  6.6000000000000E-01  1.5977639215775E+00  2.2612963547819E-01
68  6.7000000000000E-01  1.6302421407969E+00  1.6948776727560E-01
69  6.8000000000000E-01  1.6588902233873E+00  1.1432587219853E-01
70  6.9000000000000E-01  1.6835055713088E+00  6.0821007685021E-02
71  7.0000000000000E-01  1.7039017108136E+00  9.1422818592249E-03
72  7.1000000000000E-01  1.7199099629851E+00 -4.0550032272272E-02
73  7.2000000000000E-01  1.7313810414914E+00 -8.8105353186621E-02
74  7.3000000000000E-01  1.7381865612938E+00 -1.3338361048758E-01
75  7.4000000000000E-01  1.7402204423086E+00 -1.7625602055677E-01
76  7.5000000000000E-01  1.7374001924488E+00 -2.1660581104237E-01
77  7.6000000000000E-01  1.7296680550848E+00 -2.5432888719283E-01
78  7.7000000000000E-01  1.7169920067471E+00 -2.8933443330532E-01
79  7.8000000000000E-01  1.6993665918538E+00 -3.2154544290154E-01
80  7.9000000000000E-01  1.6768135823741E+00 -3.5089917166727E-01
81  8.0000000000000E-01  1.6493824516262E+00 -3.7734750769488E-01
82  8.1000000000000E-01  1.6171506528452E+00 -4.0085725414483E-01
83  8.2000000000000E-01  1.5802236947383E+00 -4.2141032008969E-01
84  8.3000000000000E-01  1.5387350079413E+00 -4.3900381601625E-01
85  8.4000000000000E-01  1.4928455981084E+00 -4.5365005123178E-01
86  8.5000000000000E-01  1.4427434832631E+00 -4.6537643124138E-01
87  8.6000000000000E-01  1.3886429150203E+00 -4.7422525402654E-01
88  8.7000000000000E-01  1.3307833853083E+00 -4.8025340505201E-01
89  8.8000000000000E-01  1.2694284222804E+00 -4.8353195174770E-01
90  8.9000000000000E-01  1.2048641811627E+00 -4.8414563914579E-01
91  9.0000000000000E-01  1.1373978378307E+00 -4.8219228928816E-01
92  9.1000000000000E-01  1.0673557949055E+00 -4.7778210794627E-01
93  9.2000000000000E-01  9.9508171209628E-01 -4.7103690310104E-01
94  9.3000000000000E-01  9.2093437435835E-01 -4.6208922050540E-01
95  9.4000000000000E-01  8.4528541316146E-01 -4.5108140248345E-01
96  9.5000000000000E-01  7.6851689775461E-01 -4.3816457689747E-01
97  9.6000000000000E-01  6.9101881473907E-01 -4.2349758392695E-01
98  9.7000000000000E-01  6.1318645550747E-01 -4.0724584894084E-01
99  9.8000000000000E-01  5.3541773215739E-01 -3.8958021030223E-01
100  9.9000000000000E-01  4.5811044329404E-01 -3.7067571139251E-01
101  1.0000000000000E+00  3.8165951175801E-01 -3.5071036651922E-01
102  1.0100000000000E+00  3.0645421663739E-01 -3.2986391061158E-01
103  1.0200000000000E+00  2.3287544202023E-01 -3.0831654275171E-01
104  1.0300000000000E+00  1.6129296477214E-01 -2.8624767361326E-01
105  1.0400000000000E+00  9.2062803163711E-02 -2.6383468677642E-01
106  1.0500000000000E+00  2.5524647475359E-02 -2.4125172367384E-01
107  1.0600000000000E+00 -3.8000607245860E-02 -2.1866850159506E-01
108  1.0700000000000E+00 -9.8213207402080E-02 -1.9624917369484E-01
109  1.0800000000000E+00 -1.5483674858471E-01 -1.7415123940117E-01
110  1.0900000000000E+00 -2.0762022921295E-01 -1.5252451289602E-01
111  1.1000000000000E+00 -2.5633993628514E-01 -1.3151015659746E-01
112  1.1100000000000E+00 -3.0080115163063E-01 -1.1123978568034E-01
113  1.1200000000000E+00 -3.4083966951397E-01 -9.1834648644850E-02
114  1.1300000000000E+00 -3.7632311884442E-01 -7.3404887929327E-02
115  1.1400000000000E+00 -4.0715208599499E-01 -5.6048883392851E-02
116  1.1500000000000E+00 -4.3326103656872E-01 -3.9852680495369E-02
117  1.1600000000000E+00 -4.5461903789868E-01 -2.4889503511304E-02
118  1.1700000000000E+00 -4.7123028657097E-01 -1.1219353019247E-02
119  1.1800000000000E+00 -4.8313444803704E-01  1.1113143062899E-03
120  1.1900000000000E+00 -4.9040681818877E-01  1.2069826810321E-02
121  1.2000000000000E+00 -4.9315831992688E-01  2.1637464494715E-02
122  1.2100000000000E+00 -4.9153535038217E-01  2.9809556977049E-02
123  1.2200000000000E+00 -4.8571949595466E-01  3.6595519240163E-02
124  1.2300000000000E+00 -4.7592713632999E-01  4.2018833457584E-02
125  1.2400000000000E+00 -4.6240895992605E-01  4.6116985791959E-02
126  1.2500000000000E+00 -4.4544941478988E-01  4.8941367782753E-02
127  1.2600000000000E+00 -4.2536612154897E-01  5.0557153149129E-02
128  1.2700000000000E+00 -4.0250930370972E-01  5.1043170882907E-02
129  1.2800000000000E+00 -3.7726114129839E-01  5.0491744700596E-02
130  1.2900000000000E+00 -3.5003528528604E-01  4.9008580559935E-02
131  1.3000000000000E+00 -3.2127544340096E-01  4.6712333551698E-02
132  1.3100000000000E+00 -2.9145978366715E-01  4.3736174172495E-02
133  1.3200000000000E+00 -2.6108837978645E-01  4.0223529402996E-02
134  1.3300000000000E+00 -2.3066300625905E-01  3.6321152401746E-02
135  1.3400000000000E+00 -2.0066484900113E-01  3.2171214565970E-02
136  1.3500000000000E+00 -1.7154326837153E-01  2.7907153024072E-02
137  1.3600000000000E+00 -1.4371713198856E-01  2.3653770853034E-02
138  1.3700000000000E+00 -1.1757002173470E-01  1.9525293860224E-02
139  1.3800000000000E+00 -9.3447767976017E-02  1.5624230535378E-02
140  1.3900000000000E+00 -7.1655752115386E-02  1.2040178061626E-02
141  1.4000000000000E+00 -5.2456686877947E-02  8.8488167695470E-03
142  1.4100000000000E+00 -3.6075733241061E-02  6.1122817589253E-03
143  1.4200000000000E+00 -2.2670192141847E-02  3.8733475014295E-03
144  1.4300000000000E+00 -1.2298912628317E-02  2.1485879570774E-03
145  1.4400000000000E+00 -5.2555681862623E-03  9.9260982214773E-04
146  1.4500000000000E+00 -1.6311463175538E-03  4.1718717518000E-04
147  1.4600000000000E+00 -2.8983160231439E-04  1.7006753695219E-04
148  1.4700000000000E+00  4.1900194707408E-06  3.5374493574550E-05
149  1.4800000000000E+00 -1.4236554021807E-05 -1.1709861551424E-05
150  1.4900000000000E+00 -8.3275394538632E-06 -3.7130781317157E-06
151  1.5000000000000E+00  8.9885082016062E-07  3.2216992856337E-06
152  1.5100000000000E+00  8.6504857307377E-08  1.5105502034390E-07
153  1.5200000000000E+00  1.4564389705628E-06 -6.2989209817892E-07
154  1.5300000000000E+00  0.0000000000000E+00  0.0000000000000E+00
155  1.5400000000000E+00  0.0000000000000E+00  0.0000000000000E+00
156  1.5500000000000E+00  0.0000000000000E+00  0.0000000000000E+00
157  1.5600000000000E+00  0.0000000000000E+00  0.0000000000000E+00
158  1.5700000000000E+00  0.0000000000000E+00  0.0000000000000E+00
159  1.5800000000000E+00  0.0000000000000E+00  0.0000000000000E+00
160  1.5900000000000E+00  0.0000000000000E+00  0.0000000000000E+00
161  1.6000000000000E+00  0.0000000000000E+00  0.0000000000000E+00
162  1.6100000000000E+00  0.0000000000000E+00  0.0000000000000E+00
163  1.6200000000000E+00  0.0000000000000E+00  0.0000000000000E+00
164  1.6300000000000E+00  0.0000000000000E+00  0.0000000000000E+00
165  1.6400000000000E+00  0.0000000000000E+00  0.0000000000000E+00
166  1.6500000000000E+00  0.0000000000000E+00  0.0000000000000E+00
167  1.6600000000000E+00  0.0000000000000E+00  0.0000000000000E+00
168  1.6700000000000E+00  0.0000000000000E+00  0.0000000000000E+00
169  1.6800000000000E+00  0.0000000000000E+00  0.0000000000000E+00
170  1.6900000000000E+00  0.0000000000000E+00  0.0000000000000E+00
171  1.7000000000000E+00  0.0000000000000E+00  0.0000000000000E+00
172  1.7100000000000E+00  0.0000000000000E+00  0.0000000000000E+00
173  1.7200000000000E+00  0.0000000000000E+00  0.0000000000000E+00
174  1.7300000000000E+00  0.0000000000000E+00  0.0000000000000E+00
175  1.7400000000000E+00  0.0000000000000E+00  0.0000000000000E+00
176  1.7500000000000E+00  0.0000000000000E+00  0.0000000000000E+00
177  1.7600000000000E+00  0.0000000000000E+00  0.0000000000000E+00
178  1.7700000000000E+00  0.0000000000000E+00  0.0000000000000E+00
179  1.7800000000000E+00  0.0000000000000E+00  0.0000000000000E+00
180  1.7900000000000E+00  0.0000000000000E+00  0.0000000000000E+00
181  1.8000000000000E+00  0.0000000000000E+00  0.0000000000000E+00
182  1.8100000000000E+00  0.0000000000000E+00  0.0000000000000E+00
183  1.8200000000000E+00  0.0000000000000E+00  0.0000000000000E+00
184  1.8300000000000E+00  0.0000000000000E+00  0.0000000000000E+00
185  1.8400000000000E+00  0.0000000000000E+00  0.0000000000000E+00
186  1.8500000000000E+00  0.0000000000000E+00  0.0000000000000E+00
187  1.8600000000000E+00  0.0000000000000E+00  0.0000000000000E+00
188  1.8700000000000E+00  0.0000000000000E+00  0.0000000000000E+00
189  1.8800000000000E+00  0.0000000000000E+00  0.0000000000000E+00
190  1.8900000000000E+00  0.0000000000000E+00  0.0000000000000E+00
191  1.9000000000000E+00  0.0000000000000E+00  0.0000000000000E+00
192  1.9100000000000E+00  0.0000000000000E+00  0.0000000000000E+00
193  1.9200000000000E+00  0.0000000000000E+00  0.0000000000000E+00
194  1.9300000000000E+00  0.0000000000000E+00  0.0000000000000E+00
195  1.9400000000000E+00  0.0000000000000E+00  0.0000000000000E+00
196  1.9500000000000E+00  0.0000000000000E+00  0.0000000000000E+00
197  1.9600000000000E+00  0.0000000000000E+00  0.0000000000000E+00
198  1.9700000000000E+00  0.0000000000000E+00  0.0000000000000E+00
199  1.9800000000000E+00  0.0000000000000E+00  0.0000000000000E+00
200  1.9900000000000E+00  0.0000000000000E+00  0.0000000000000E+00
201  2.0000000000000E+00  0.0000000000000E+00  0.0000000000000E+00
202  2.0100000000000E+00  0.0000000000000E+00  0.0000000000000E+00
203  2.0200000000000E+00  0.0000000000000E+00  0.0000000000000E+00
204  2.0300000000000E+00  0.0000000000000E+00  0.0000000000000E+00
205  2.0400000000000E+00  0.0000000000000E+00  0.0000000000000E+00
206  2.0500000000000E+00  0.0000000000000E+00  0.0000000000000E+00
207  2.0600000000000E+00  0.0000000000000E+00  0.0000000000000E+00
208  2.0700000000000E+00  0.0000000000000E+00  0.0000000000000E+00
209  2.0800000000000E+00  0.0000000000000E+00  0.0000000000000E+00
210  2.0900000000000E+00  0.0000000000000E+00  0.0000000000000E+00
211  2.1000000000000E+00  0.0000000000000E+00  0.0000000000000E+00
212  2.1100000000000E+00  0.0000000000000E+00  0.0000000000000E+00
213  2.1200000000000E+00  0.0000000000000E+00  0.0000000000000E+00
214  2.1300000000000E+00  0.0000000000000E+00  0.0000000000000E+00
215  2.1400000000000E+00  0.0000000000000E+00  0.0000000000000E+00
216  2.1500000000000E+00  0.0000000000000E+00  0.0000000000000E+00
217  2.1600000000000E+00  0.0000000000000E+00  0.0000000000000E+00
218  2.1700000000000E+00  0.0000000000000E+00  0.0000000000000E+00
219  2.1800000000000E+00  0.0000000000000E+00  0.0000000000000E+00
220  2.1900000000000E+00  0.0000000000000E+00  0.0000000000000E+00
221  2.2000000000000E+00  0.0000000000000E+00  0.0000000000000E+00
222  2.2100000000000E+00  0.0000000000000E+00  0.0000000000000E+00
223  2.2200000000000E+00  0.0000000000000E+00  0.0000000000000E+00
224  2.2300000000000E+00  0.0000000000000E+00  0.0000000000000E+00
225  2.2400000000000E+00  0.0000000000000E+00  0.0000000000000E+00
226  2.2500000000000E+00  0.0000000000000E+00  0.0000000000000E+00
227  2.2600000000000E+00  0.0000000000000E+00  0.0000000000000E+00
228  2.2700000000000E+00  0.0000000000000E+00  0.0000000000000E+00
229  2.2800000000000E+00  0.0000000000000E+00  0.0000000000000E+00
230  2.2900000000000E+00  0.0000000000000E+00  0.0000000000000E+00
231  2.3000000000000E+00  0.0000000000000E+00  0.0000000000000E+00
232  2.3100000000000E+00  0.0000000000000E+00  0.0000000000000E+00
233  2.3200000000000E+00  0.0000000000000E+00  0.0000000000000E+00
234  2.3300000000000E+00  0.0000000000000E+00  0.0000000000000E+00
235  2.3400000000000E+00  0.0000000000000E+00  0.0000000000000E+00
236  2.3500000000000E+00  0.0000000000000E+00  0.0000000000000E+00
237  2.3600000000000E+00  0.0000000000000E+00  0.0000000000000E+00
238  2.3700000000000E+00  0.0000000000000E+00  0.0000000000000E+00
239  2.3800000000000E+00  0.0000000000000E+00  0.0000000000000E+00
240  2.3900000000000E+00  0.0000000000000E+00  0.0000000000000E+00
241  2.4000000000000E+00  0.0000000000000E+00  0.0000000000000E+00
242  2.4100000000000E+00  0.0000000000000E+00  0.0000000000000E+00
243  2.4200000000000E+00  0.0000000000000E+00  0.0000000000000E+00
244  2.4300000000000E+00  0.0000000000000E+00  0.0000000000000E+00
245  2.4400000000000E+00  0.0000000000000E+00  0.0000000000000E+00
246  2.4500000000000E+00  0.0000000000000E+00  0.0000000000000E+00
247  2.4600000000000E+00  0.0000000000000E+00  0.0000000000000E+00
248  2.4700000000000E+00  0.0000000000000E+00  0.0000000000000E+00
249  2.4800000000000E+00  0.0000000000000E+00  0.0000000000000E+00
250  2.4900000000000E+00  0.0000000000000E+00  0.0000000000000E+00
251  2.5000000000000E+00  0.0000000000000E+00  0.0000000000000E+00
252  2.5100000000000E+00  0.0000000000000E+00  0.0000000000000E+00
253  2.5200000000000E+00  0.0000000000000E+00  0.0000000000000E+00
254  2.5300000000000E+00  0.0000000000000E+00  0.0000000000000E+00
255  2.5400000000000E+00  0.0000000000000E+00  0.0000000000000E+00
256  2.5500000000000E+00  0.0000000000000E+00  0.0000000000000E+00
257  2.5600000000000E+00  0.0000000000000E+00  0.0000000000000E+00
258  2.5700000000000E+00  0.0000000000000E+00  0.0000000000000E+00
259  2.5800000000000E+00  0.0000000000000E+00  0.0000000000000E+00
260  2.5900000000000E+00  0.0000000000000E+00  0.0000000000000E+00
261  2.6000000000000E+00  0.0000000000000E+00  0.0000000000000E+00
262  2.6100000000000E+00  0.0000000000000E+00  0.0000000000000E+00
263  2.6200000000000E+00  0.0000000000000E+00  0.0000000000000E+00
264  2.6300000000000E+00  0.0000000000000E+00  0.0000000000000E+00
265  2.6400000000000E+00  0.0000000000000E+00  0.0000000000000E+00
266  2.6500000000000E+00  0.0000000000000E+00  0.0000000000000E+00
267  2.6600000000000E+00  0.0000000000000E+00  0.0000000000000E+00
268  2.6700000000000E+00  0.0000000000000E+00  0.0000000000000E+00
269  2.6800000000000E+00  0.0000000000000E+00  0.0000000000000E+00
270  2.6900000000000E+00  0.0000000000000E+00  0.0000000000000E+00
271  2.7000000000000E+00  0.0000000000000E+00  0.0000000000000E+00
272  2.7100000000000E+00  0.0000000000000E+00  0.0000000000000E+00
273  2.7200000000000E+00  0.0000000000000E+00  0.0000000000000E+00
274  2.7300000000000E+00  0.0000000000000E+00  0.0000000000000E+00
275  2.7400000000000E+00  0.0000000000000E+00  0.0000000000000E+00
276  2.7500000000000E+00  0.0000000000000E+00  0.0000000000000E+00
277  2.7600000000000E+00  0.0000000000000E+00  0.0000000000000E+00
278  2.7700000000000E+00  0.0000000000000E+00  0.0000000000000E+00
279  2.7800000000000E+00  0.0000000000000E+00  0.0000000000000E+00
280  2.7900000000000E+00  0.0000000000000E+00  0.0000000000000E+00
281  2.8000000000000E+00  0.0000000000000E+00  0.0000000000000E+00
282  2.8100000000000E+00  0.0000000000000E+00  0.0000000000000E+00
283  2.8200000000000E+00  0.0000000000000E+00  0.0000000000000E+00
284  2.8300000000000E+00  0.0000000000000E+00  0.0000000000000E+00
285  2.8400000000000E+00  0.0000000000000E+00  0.0000000000000E+00
286  2.8500000000000E+00  0.0000000000000E+00  0.0000000000000E+00
287  2.8600000000000E+00  0.0000000000000E+00  0.0000000000000E+00
288  2.8700000000000E+00  0.0000000000000E+00  0.0000000000000E+00
289  2.8800000000000E+00  0.0000000000000E+00  0.0000000000000E+00
290  2.8900000000000E+00  0.0000000000000E+00  0.0000000000000E+00
291  2.9000000000000E+00  0.0000000000000E+00  0.0000000000000E+00
292  2.9100000000000E+00  0.0000000000000E+00  0.0000000000000E+00
293  2.9200000000000E+00  0.0000000000000E+00  0.0000000000000E+00
294  2.9300000000000E+00  0.0000000000000E+00  0.0000000000000E+00
295  2.9400000000000E+00  0.0000000000000E+00  0.0000000000000E+00
296  2.9500000000000E+00  0.0000000000000E+00  0.0000000000000E+00
297  2.9600000000000E+00  0.0000000000000E+00  0.0000000000000E+00
298  2.9700000000000E+00  0.0000000000000E+00  0.0000000000000E+00
299  2.9800000000000E+00  0.0000000000000E+00  0.0000000000000E+00
300  2.9900000000000E+00  0.0000000000000E+00  0.0000000000000E+00
301  3.0000000000000E+00  0.0000000000000E+00  0.0000000000000E+00
302  3.0100000000000E+00  0.0000000000000E+00  0.0000000000000E+00
303  3.0200000000000E+00  0.0000000000000E+00  0.0000000000000E+00
304  3.0300000000000E+00  0.0000000000000E+00  0.0000000000000E+00
305  3.0400000000000E+00  0.0000000000000E+00  0.0000000000000E+00
306  3.0500000000000E+00  0.0000000000000E+00  0.0000000000000E+00
307  3.0600000000000E+00  0.0000000000000E+00  0.0000000000000E+00
308  3.0700000000000E+00  0.0000000000000E+00  0.0000000000000E+00
309  3.0800000000000E+00  0.0000000000000E+00  0.0000000000000E+00
310  3.0900000000000E+00  0.0000000000000E+00  0.0000000000000E+00
311  3.1000000000000E+00  0.0000000000000E+00  0.0000000000000E+00
312  3.1100000000000E+00  0.0000000000000E+00  0.0000000000000E+00
313  3.1200000000000E+00  0.0000000000000E+00  0.0000000000000E+00
314  3.1300000000000E+00  0.0000000000000E+00  0.0000000000000E+00
315  3.1400000000000E+00  0.0000000000000E+00  0.0000000000000E+00
316  3.1500000000000E+00  0.0000000000000E+00  0.0000000000000E+00
317  3.1600000000000E+00  0.0000000000000E+00  0.0000000000000E+00
318  3.1700000000000E+00  0.0000000000000E+00  0.0000000000000E+00
319  3.1800000000000E+00  0.0000000000000E+00  0.0000000000000E+00
320  3.1900000000000E+00  0.0000000000000E+00  0.0000000000000E+00
321  3.2000000000000E+00  0.0000000000000E+00  0.0000000000000E+00
322  3.2100000000000E+00  0.0000000000000E+00  0.0000000000000E+00
323  3.2200000000000E+00  0.0000000000000E+00  0.0000000000000E+00
324  3.2300000000000E+00  0.0000000000000E+00  0.0000000000000E+00
325  3.2400000000000E+00  0.0000000000000E+00  0.0000000000000E+00
326  3.2500000000000E+00  0.0000000000000E+00  0.0000000000000E+00
327  3.2600000000000E+00  0.0000000000000E+00  0.0000000000000E+00
328  3.2700000000000E+00  0.0000000000000E+00  0.0000000000000E+00
329  3.2800000000000E+00  0.0000000000000E+00  0.0000000000000E+00
330  3.2900000000000E+00  0.0000000000000E+00  0.0000000000000E+00
331  3.3000000000000E+00  0.0000000000000E+00  0.0000000000000E+00
332  3.3100000000000E+00  0.0000000000000E+00  0.0000000000000E+00
333  3.3200000000000E+00  0.0000000000000E+00  0.0000000000000E+00
334  3.3300000000000E+00  0.0000000000000E+00  0.0000000000000E+00
335  3.3400000000000E+00  0.0000000000000E+00  0.0000000000000E+00
336  3.3500000000000E+00  0.0000000000000E+00  0.0000000000000E+00
337  3.3600000000000E+00  0.0000000000000E+00  0.0000000000000E+00
338  3.3700000000000E+00  0.0000000000000E+00  0.0000000000000E+00
339  3.3800000000000E+00  0.0000000000000E+00  0.0000000000000E+00
340  3.3900000000000E+00  0.0000000000000E+00  0.0000000000000E+00
341  3.4000000000000E+00  0.0000000000000E+00  0.0000000000000E+00
342  3.4100000000000E+00  0.0000000000000E+00  0.0000000000000E+00
343  3.4200000000000E+00  0.0000000000000E+00  0.0000000000000E+00
344  3.4300000000000E+00  0.0000000000000E+00  0.0000000000000E+00
345  3.4400000000000E+00  0.0000000000000E+00  0.0000000000000E+00
346  3.4500000000000E+00  0.0000000000000E+00  0.0000000000000E+00
347  3.4600000000000E+00  0.0000000000000E+00  0.0000000000000E+00
348  3.4700000000000E+00  0.0000000000000E+00  0.0000000000000E+00
349  3.4800000000000E+00  0.0000000000000E+00  0.0000000000000E+00
350  3.4900000000000E+00  0.0000000000000E+00  0.0000000000000E+00
351  3.5000000000000E+00  0.0000000000000E+00  0.0000000000000E+00
352  3.5100000000000E+00  0.0000000000000E+00  0.0000000000000E+00
353  3.5200000000000E+00  0.0000000000000E+00  0.0000000000000E+00
354  3.5300000000000E+00  0.0000000000000E+00  0.0000000000000E+00
355  3.5400000000000E+00  0.0000000000000E+00  0.0000000000000E+00
356  3.5500000000000E+00  0.0000000000000E+00  0.0000000000000E+00
357  3.5600000000000E+00  0.0000000000000E+00  0.0000000000000E+00
358  3.5700000000000E+00  0.0000000000000E+00  0.0000000000000E+00
359  3.5800000000000E+00  0.0000000000000E+00  0.0000000000000E+00
360  3.5900000000000E+00  0.0000000000000E+00  0.0000000000000E+00
361  3.6000000000000E+00  0.0000000000000E+00  0.0000000000000E+00
362  3.6100000000000E+00  0.0000000000000E+00  0.0000000000000E+00
363  3.6200000000000E+00  0.0000000000000E+00  0.0000000000000E+00
364  3.6300000000000E+00  0.0000000000000E+00  0.0000000000000E+00
365  3.6400000000000E+00  0.0000000000000E+00  0.0000000000000E+00
366  3.6500000000000E+00  0.0000000000000E+00  0.0000000000000E+00
367  3.6600000000000E+00  0.0000000000000E+00  0.0000000000000E+00
368  3.6700000000000E+00  0.0000000000000E+00  0.0000000000000E+00
369  3.6800000000000E+00  0.0000000000000E+00  0.0000000000000E+00
370  3.6900000000000E+00  0.0000000000000E+00  0.0000000000000E+00
371  3.7000000000000E+00  0.0000000000000E+00  0.0000000000000E+00
372  3.7100000000000E+00  0.0000000000000E+00  0.0000000000000E+00
373  3.7200000000000E+00  0.0000000000000E+00  0.0000000000000E+00
374  3.7300000000000E+00  0.0000000000000E+00  0.0000000000000E+00
375  3.7400000000000E+00  0.0000000000000E+00  0.0000000000000E+00
376  3.7500000000000E+00  0.0000000000000E+00  0.0000000000000E+00
377  3.7600000000000E+00  0.0000000000000E+00  0.0000000000000E+00
378  3.7700000000000E+00  0.0000000000000E+00  0.0000000000000E+00
379  3.7800000000000E+00  0.0000000000000E+00  0.0000000000000E+00
380  3.7900000000000E+00  0.0000000000000E+00  0.0000000000000E+00
381  3.8000000000000E+00  0.0000000000000E+00  0.0000000000000E+00
382  3.8100000000000E+00  0.0000000000000E+00  0.0000000000000E+00
383  3.8200000000000E+00  0.0000000000000E+00  0.0000000000000E+00
384  3.8300000000000E+00  0.0000000000000E+00  0.0000000000000E+00
385  3.8400000000000E+00  0.0000000000000E+00  0.0000000000000E+00
386  3.8500000000000E+00  0.0000000000000E+00  0.0000000000000E+00
387  3.8600000000000E+00  0.0000000000000E+00  0.0000000000000E+00
388  3.8700000000000E+00  0.0000000000000E+00  0.0000000000000E+00
389  3.8800000000000E+00  0.0000000000000E+00  0.0000000000000E+00
390  3.8900000000000E+00  0.0000000000000E+00  0.0000000000000E+00
391  3.9000000000000E+00  0.0000000000000E+00  0.0000000000000E+00
392  3.9100000000000E+00  0.0000000000000E+00  0.0000000000000E+00
393  3.9200000000000E+00  0.0000000000000E+00  0.0000000000000E+00
394  3.9300000000000E+00  0.0000000000000E+00  0.0000000000000E+00
395  3.9400000000000E+00  0.0000000000000E+00  0.0000000000000E+00
396  3.9500000000000E+00  0.0000000000000E+00  0.0000000000000E+00
397  3.9600000000000E+00  0.0000000000000E+00  0.0000000000000E+00
398  3.9700000000000E+00  0.0000000000000E+00  0.0000000000000E+00
399  3.9800000000000E+00  0.0000000000000E+00  0.0000000000000E+00
400  3.9900000000000E+00  0.0000000000000E+00  0.0000000000000E+00
401  4.0000000000000E+00  0.0000000000000E+00  0.0000000000000E+00
402  4.0100000000000E+00  0.0000000000000E+00  0.0000000000000E+00
403  4.0200000000000E+00  0.0000000000000E+00  0.0000000000000E+00
404  4.0300000000000E+00  0.0000000000000E+00  0.0000000000000E+00
405  4.0400000000000E+00  0.0000000000000E+00  0.0000000000000E+00
406  4.0500000000000E+00  0.0000000000000E+00  0.0000000000000E+00
407  4.0600000000000E+00  0.0000000000000E+00  0.0000000000000E+00
408  4.0700000000000E+00  0.0000000000000E+00  0.0000000000000E+00
409  4.0800000000000E+00  0.0000000000000E+00  0.0000000000000E+00
410  4.0900000000000E+00  0.0000000000000E+00  0.0000000000000E+00
411  4.1000000000000E+00  0.0000000000000E+00  0.0000000000000E+00
412  4.1100000000000E+00  0.0000000000000E+00  0.0000000000000E+00
413  4.1200000000000E+00  0.0000000000000E+00  0.0000000000000E+00
414  4.1300000000000E+00  0.0000000000000E+00  0.0000000000000E+00
415  4.1400000000000E+00  0.0000000000000E+00  0.0000000000000E+00
416  4.1500000000000E+00  0.0000000000000E+00  0.0000000000000E+00
417  4.1600000000000E+00  0.0000000000000E+00  0.0000000000000E+00
418  4.1700000000000E+00  0.0000000000000E+00  0.0000000000000E+00
419  4.1800000000000E+00  0.0000000000000E+00  0.0000000000000E+00
420  4.1900000000000E+00  0.0000000000000E+00  0.0000000000000E+00
421  4.2000000000000E+00  0.0000000000000E+00  0.0000000000000E+00
422  4.2100000000000E+00  0.0000000000000E+00  0.0000000000000E+00
423  4.2200000000000E+00  0.0000000000000E+00  0.0000000000000E+00
424  4.2300000000000E+00  0.0000000000000E+00  0.0000000000000E+00
425  4.2400000000000E+00  0.0000000000000E+00  0.0000000000000E+00
426  4.2500000000000E+00  0.0000000000000E+00  0.0000000000000E+00
427  4.2600000000000E+00  0.0000000000000E+00  0.0000000000000E+00
428  4.2700000000000E+00  0.0000000000000E+00  0.0000000000000E+00
429  4.2800000000000E+00  0.0000000000000E+00  0.0000000000000E+00
430  4.2900000000000E+00  0.0000000000000E+00  0.0000000000000E+00
431  4.3000000000000E+00  0.0000000000000E+00  0.0000000000000E+00
432  4.3100000000000E+00  0.0000000000000E+00  0.0000000000000E+00
433  4.3200000000000E+00  0.0000000000000E+00  0.0000000000000E+00
434  4.3300000000000E+00  0.0000000000000E+00  0.0000000000000E+00
435  4.3400000000000E+00  0.0000000000000E+00  0.0000000000000E+00
436  4.3500000000000E+00  0.0000000000000E+00  0.0000000000000E+00
437  4.3600000000000E+00  0.0000000000000E+00  0.0000000000000E+00
438  4.3700000000000E+00  0.0000000000000E+00  0.0000000000000E+00
439  4.3800000000000E+00  0.0000000000000E+00  0.0000000000000E+00
440  4.3900000000000E+00  0.0000000000000E+00  0.0000000000000E+00
441  4.4000000000000E+00  0.0000000000000E+00  0.0000000000000E+00
442  4.4100000000000E+00  0.0000000000000E+00  0.0000000000000E+00
443  4.4200000000000E+00  0.0000000000000E+00  0.0000000000000E+00