:MDSTEP: 10
:R(Bohr):
  3.9862909777E-01   1.2491739755E-01   7.0681237310E-02
  3.8000958989E+00   1.5159531580E+01   3.8762333199E+00
  7.6894484684E+00   1.5110972585E+01   2.5065735481E-01
  1.1324608966E+01   1.5163074383E+01   3.7202604653E+00
  4.5904527232E-02   7.6636530309E+00   1.5165155611E+01
  3.7626483964E+00   7.6583424876E+00   3.7816566072E+00
  7.4547547403E+00   7.5011613144E+00   4.3835398298E-02
  1.1383873280E+01   7.6183931972E+00   3.8558368965E+00
  4.7291510329E-01   1.5107559257E+01   7.6086535661E+00
  3.7204420540E+00   8.8645245148E-03   1.1277615325E+01
  7.5880209055E+00   1.6055174705E-02   7.8369182353E+00
  1.1394141924E+01   1.5107992044E+01   1.1450362334E+01
  8.9076109164E-02   7.5906017389E+00   7.6470435977E+00
  3.9187864613E+00   7.6544649275E+00   1.1368559923E+01
  7.4701062194E+00   7.6907646478E+00   7.5376311957E+00
  1.1386620122E+01   7.4598975505E+00   1.1368371707E+01
  2.4938130653E-02   3.8239508134E+00   3.8241824211E+00
  3.7588991901E+00   3.8007037369E+00   1.5162136366E+01
  7.6307273932E+00   3.7290596890E+00   3.6747108789E+00
  1.1345591551E+01   3.7776373477E+00   1.5122749929E+01
  2.9467898828E-01   1.1350919060E+01   3.8215603529E+00
  3.7272609877E+00   1.1394816089E+01   4.8692790567E-01
  7.6267936372E+00   1.1435423497E+01   3.8146347627E+00
  1.1253835010E+01   1.1370683426E+01   1.1205032221E-02
  4.0915418125E-02   3.7490186876E+00   1.1301122481E+01
  3.7944078601E+00   3.7478425198E+00   7.6614907816E+00
  7.6498959211E+00   3.7684607321E+00   1.1390639224E+01
  1.1333364737E+01   3.8337527730E+00   7.6273935351E+00
  2.9111433334E-01   1.1379245228E+01   1.1391533270E+01
  3.7649175964E+00   1.1294693881E+01   7.9792306992E+00
  7.6218955469E+00   1.1450814579E+01   1.1452237201E+01
  1.1422202049E+01   1.1382996174E+01   7.6179564273E+00
:V(Bohr/atu):
 -3.7691690161E-05   5.6229738389E-04   3.1727918138E-04
  4.3424256242E-05  -5.3123147782E-05   3.7284627827E-04
  4.6292177571E-04  -2.7151028459E-04  -2.4262473670E-04
 -2.3986750715E-04  -3.7422549824E-05  -3.2053711264E-04
  2.0879390760E-04   3.4529134174E-04  -3.1534581950E-05
 -1.3881703391E-04   3.2629798835E-04  -5.1670724984E-05
 -5.8747126310E-04  -3.8208927618E-04   2.0243953983E-04
  2.0894561610E-05   1.4179151795E-04   2.8187920802E-04
  2.9047705606E-04  -2.8697739597E-04   9.9355403325E-05
 -3.1711299197E-04   4.2665873707E-05  -4.5212190988E-04
  1.0734408110E-05   7.3464544803E-05  -2.3906046571E-04
  7.2190525324E-05  -2.8367028868E-04   3.2730611225E-04
  4.0483462859E-04   2.1872364731E-05   2.7536669122E-04
  5.6159729137E-04   3.0496254660E-04  -5.1064089265E-05
 -5.2237892390E-04   4.6799318835E-04  -2.1296016332E-04
  3.1930117066E-05  -5.7426083741E-04  -4.5691892597E-05
  1.1121325973E-04   1.3644374281E-04   1.4409417901E-04
 -1.5455525550E-04   3.4990331444E-05  -2.5489402809E-05
  2.1119514736E-04  -2.8808260428E-04  -5.5084123189E-04
 -1.6374931611E-04  -6.2775842527E-05  -2.2915708064E-04
 -8.4205803050E-06  -1.2886919384E-04   1.0867172334E-04
 -3.1046418894E-04   6.7588772261E-05  -5.3651470949E-05
  2.0416167860E-04   2.5380901086E-04   5.7390281090E-05
 -5.9853090067E-04  -3.0728339390E-05   8.0945521804E-05
  1.8463401440E-04  -1.9560189941E-04  -3.5714827672E-04
 -1.8040521185E-06  -2.0421512914E-04   3.6189482931E-04
  3.0292424781E-04  -1.0820731989E-04   4.4158577261E-05
 -2.0810203385E-04   1.8474007347E-04   1.8313671093E-04
 -3.1961393465E-05   1.5734984446E-06   2.5086586091E-05
 -1.5630126559E-04  -3.8467312622E-04  -4.8539347120E-04
  1.9109790770E-04   3.2341657967E-04   2.9744599029E-04
  1.7459422962E-04   1.8629537126E-05   1.7865534563E-04
:NPT_NH_QMASS: 4
 4000 4000 4000 4000
:NPT_NH_BMASS: 250000
:NPT_NH_vlogs: 4
 -0.000150807734993627 -0.000175853850107864 -0.000175948090145351 -0.000174097049905893
:NPT_NH_vlogv: -8.41436653318683e-05
:NPT_NH_xlogs: 4
 -0.018268439673722 -0.0174495728392653 -0.0174580651743011 -0.0173686576461629
:LATVEC_SCALE: 15.1719277253506 15.1719277253506 15.1719277253506
:TARGET_PRESSURE: 0 GPa
:TEL(K): 1120
:TIO(K): 1141.65835364758
