:MDSTEP: 10
:R(Bohr):
  3.9862914306E-01   1.2491733090E-01   7.0681223632E-02
  3.8000956847E+00   1.5159531001E+01   3.8762331922E+00
  7.6894482076E+00   1.5110971939E+01   2.5065729731E-01
  1.1324608646E+01   1.5163073841E+01   3.7202603656E+00
  4.5904643238E-02   7.6636527487E+00   1.5165155161E+01
  3.7626482602E+00   7.6583422584E+00   3.7816564931E+00
  7.4547543793E+00   7.5011610452E+00   4.3835341877E-02
  1.1383872995E+01   7.6183929390E+00   3.8558367234E+00
  4.7291513004E-01   1.5107558777E+01   7.6086532029E+00
  3.7204419780E+00   8.8645143508E-03   1.1277614980E+01
  7.5880206820E+00   1.6055164490E-02   7.8369180009E+00
  1.1394141515E+01   1.5107991560E+01   1.1450361936E+01
  8.9076243776E-02   7.5906015323E+00   7.6470431735E+00
  3.9187863987E+00   7.6544647175E+00   1.1368559556E+01
  7.4701057829E+00   7.6907644168E+00   7.5376309017E+00
  1.1386619726E+01   7.4598972943E+00   1.1368371356E+01
  2.4938242608E-02   3.8239504946E+00   3.8241823324E+00
  3.7588989791E+00   3.8007034756E+00   1.5162135897E+01
  7.6307270288E+00   3.7290593874E+00   3.6747107747E+00
  1.1345591198E+01   3.7776368553E+00   1.5122749452E+01
  2.9467911439E-01   1.1350918925E+01   3.8215602867E+00
  3.7272608817E+00   1.1394815888E+01   4.8692789417E-01
  7.6267931348E+00   1.1435423347E+01   3.8146346568E+00
  1.1253834618E+01   1.1370683401E+01   1.1205076341E-02
  4.0915468480E-02   3.7490182464E+00   1.1301122190E+01
  3.7944076754E+00   3.7478421927E+00   7.6614904510E+00
  7.6498954992E+00   3.7684603022E+00   1.1390638837E+01
  1.1333364412E+01   3.8337522148E+00   7.6273931837E+00
  2.9111450786E-01   1.1379245161E+01   1.1391532947E+01
  3.7649174475E+00   1.1294693649E+01   7.9792303276E+00
  7.6218950944E+00   1.1450814460E+01   1.1452236864E+01
  1.1422201616E+01   1.1382996130E+01   7.6179560873E+00
:V(Bohr/atu):
 -3.7690695037E-05   5.6229648344E-04   3.1727923265E-04
  4.3423581348E-05  -5.3123448731E-05   3.7284614049E-04
  4.6292157665E-04  -2.7151070285E-04  -2.4262459625E-04
 -2.3986703392E-04  -3.7422663176E-05  -3.2053703290E-04
  2.0879497028E-04   3.4529095609E-04  -3.1533994437E-05
 -1.3881725275E-04   3.2629824950E-04  -5.1670820139E-05
 -5.8747169058E-04  -3.8208906876E-04   2.0243943595E-04
  2.0895259740E-05   1.4179170768E-04   2.8187879415E-04
  2.9047775460E-04  -2.8697719884E-04   9.9354848772E-05
 -3.1711287327E-04   4.2665986141E-05  -4.5212148671E-04
  1.0734577007E-05   7.3464970747E-05  -2.3906012282E-04
  7.2190494970E-05  -2.8366976697E-04   3.2730578193E-04
  4.0483583082E-04   2.1872538308E-05   2.7536582640E-04
  5.6159733892E-04   3.0496265859E-04  -5.1064046534E-05
 -5.2237983185E-04   4.6799351656E-04  -2.1296006053E-04
  3.1930103058E-05  -5.7426080180E-04  -4.5691641392E-05
  1.1121476013E-04   1.3644278213E-04   1.4409406237E-04
 -1.5455612290E-04   3.4989376422E-05  -2.5488801780E-05
  2.1119408143E-04  -2.8808374152E-04  -5.5084127912E-04
 -1.6374926720E-04  -6.2778058752E-05  -2.2915664687E-04
 -8.4191228355E-06  -1.2886740961E-04   1.0867185661E-04
 -3.1046442977E-04   6.7589892148E-05  -5.3651078203E-05
  2.0415972157E-04   2.5381042498E-04   5.7389881792E-05
 -5.9853096004E-04  -3.0726627185E-05   8.0946242727E-05
  1.8463492170E-04  -1.9560334624E-04  -3.5714788805E-04
 -1.8047798521E-06  -2.0421641075E-04   3.6189453804E-04
  3.0292264914E-04  -1.0820893677E-04   4.4158382986E-05
 -2.0810164531E-04   1.8473730548E-04   1.8313622876E-04
 -3.1959549698E-05   1.5756027513E-06   2.5086834839E-05
 -1.5630188642E-04  -3.8467228894E-04  -4.8539394566E-04
  1.9109656082E-04   3.2341793702E-04   2.9744591922E-04
  1.7459369298E-04   1.8631161520E-05   1.7865496271E-04
:NPT_NH_QMASS: 4
 4000 4000 4000 4000
:NPT_NH_BMASS: 250000
:NPT_NH_vlogs: 4
 -0.000150804084601046 -0.000175853941896568 -0.000175948089080906 -0.000174097049913537
:NPT_NH_vlogv: -8.41436726152574e-05
:NPT_NH_xlogs: 4
 -0.018268032299185 -0.0174495772366605 -0.0174580651418714 -0.0173686576463355
:CELL: 15.171927204201 15.171927204201 15.171927204201
:TARGET_PRESSURE: 0 GPa
:TEL(K): 1120
:TIO(K): 1141.6582326807
