Cu    ONCVPSP-4.0.1  r_core=   1.91360   1.86835   1.89084
     29.0000     19.0000      200312    zatom,zion,pspd
     8       2   2     4   600     0    pspcod,pspxc,lmax,lloc,mmax,r2well
  5.99000000  0.00000000  0.00000000    rchrg fchrg qchrg
     2     2     2     0     0    nproj
     1     1           extension_switch
   0                        -3.3050302324757E+00 -6.8824748010746E-02
     1  0.0000000000000E+00 -5.2818860396542E-13 -1.0213443424334E-09
     2  1.0000000000000E-02  4.3752784200555E-02  4.9343573856765E-02
     3  2.0000000000000E-02  8.7456387539913E-02  9.8357216172561E-02
     4  3.0000000000000E-02  1.3106170695612E-01  1.4671363574209E-01
     5  4.0000000000000E-02  1.7451979484210E-01  1.9409079702486E-01
     6  5.0000000000000E-02  2.1778193641418E-01  2.4017448572368E-01
     7  6.0000000000000E-02  2.6079972665030E-01  2.8466080039026E-01
     8  7.0000000000000E-02  3.0352514665505E-01  3.2725854661155E-01
     9  8.0000000000000E-02  3.4591063930911E-01  3.6769151135146E-01
    10  9.0000000000000E-02  3.8790918406164E-01  4.0570059627762E-01
    11  1.0000000000000E-01  4.2947437072463E-01  4.4104579037855E-01
    12  1.1000000000000E-01  4.7056047212969E-01  4.7350796385635E-01
    13  1.2000000000000E-01  5.1112251550866E-01  5.0289046714517E-01
    14  1.3000000000000E-01  5.5111635246126E-01  5.2902052093694E-01
    15  1.4000000000000E-01  5.9049872737451E-01  5.5175038526979E-01
    16  1.5000000000000E-01  6.2922734416105E-01  5.7095829802771E-01
    17  1.6000000000000E-01  6.6726093118548E-01  5.8654917558788E-01
    18  1.7000000000000E-01  7.0455930425105E-01  5.9845507080812E-01
    19  1.8000000000000E-01  7.4108342752167E-01  6.0663538604387E-01
    20  1.9000000000000E-01  7.7679547225822E-01  6.1107684139590E-01
    21  2.0000000000000E-01  8.1165887325153E-01  6.1179320088874E-01
    22  2.1000000000000E-01  8.4563838283921E-01  6.0882476173730E-01
    23  2.2000000000000E-01  8.7870012239809E-01  6.0223761425082E-01
    24  2.3000000000000E-01  9.1081163120920E-01  5.9212268222217E-01
    25  2.4000000000000E-01  9.4194191259816E-01  5.7859455583055E-01
    26  2.5000000000000E-01  9.7206147725984E-01  5.6179013112623E-01
    27  2.6000000000000E-01  1.0011423836828E+00  5.4186707204219E-01
    28  2.7000000000000E-01  1.0291582755964E+00  5.1900211257247E-01
    29  2.8000000000000E-01  1.0560844163700E+00  4.9338921824873E-01
    30  2.9000000000000E-01  1.0818977203033E+00  4.6523762732456E-01
    31  3.0000000000000E-01  1.1065767807532E+00  4.3476979312306E-01
    32  3.1000000000000E-01  1.1301018950532E+00  4.0221924980984E-01
    33  3.2000000000000E-01  1.1524550861876E+00  3.6782842441233E-01
    34  3.3000000000000E-01  1.1736201211957E+00  3.3184641821048E-01
    35  3.4000000000000E-01  1.1935825262868E+00  2.9452678067312E-01
    36  3.5000000000000E-01  1.2123295986592E+00  2.5612529890922E-01
    37  3.6000000000000E-01  1.2298504150248E+00  2.1689782514430E-01
    38  3.7000000000000E-01  1.2461358368501E+00  1.7709816403055E-01
    39  3.8000000000000E-01  1.2611785123362E+00  1.3697604065947E-01
    40  3.9000000000000E-01  1.2749728751670E+00  9.6775168982091E-02
    41  4.0000000000000E-01  1.2875151400672E+00  5.6731438967380E-02
    42  4.1000000000000E-01  1.2988032952186E+00  1.7071239261729E-02
    43  4.2000000000000E-01  1.3088370915935E+00 -2.1990069632060E-02
    44  4.3000000000000E-01  1.3176180292709E+00 -6.0249518534395E-02
    45  4.4000000000000E-01  1.3251493408116E+00 -9.7517718037552E-02
    46  4.5000000000000E-01  1.3314359717739E+00 -1.3361986327070E-01
    47  4.6000000000000E-01  1.3364845584577E+00 -1.6839654825246E-01
    48  4.7000000000000E-01  1.3403034029750E+00 -2.0170438538111E-01
    49  4.8000000000000E-01  1.3429024457452E+00 -2.3341642792467E-01
    50  4.9000000000000E-01  1.3442932355233E+00 -2.6342239568799E-01
    51  5.0000000000000E-01  1.3444888970683E+00 -2.9162870632760E-01
    52  5.1000000000000E-01  1.3435040965681E+00 -3.1795831702947E-01
    53  5.2000000000000E-01  1.3413550049336E+00 -3.4235038343549E-01
    54  5.3000000000000E-01  1.3380592590813E+00 -3.6475974477430E-01
    55  5.4000000000000E-01  1.3336359213203E+00 -3.8515624609966E-01
    56  5.5000000000000E-01  1.3281054369640E+00 -4.0352391034285E-01
    57  5.6000000000000E-01  1.3214895902808E+00 -4.1985997452021E-01
    58  5.7000000000000E-01  1.3138114588999E+00 -4.3417380589090E-01
    59  5.8000000000000E-01  1.3050953667858E+00 -4.4648571510979E-01
    60  5.9000000000000E-01  1.2953668358882E+00 -4.5682568445871E-01
    61  6.0000000000000E-01  1.2846525365751E+00 -4.6523203004904E-01
    62  6.1000000000000E-01  1.2729802369484E+00 -4.7175001746602E-01
    63  6.2000000000000E-01  1.2603787511378E+00 -4.7643045065956E-01
    64  6.3000000000000E-01  1.2468778866635E+00 -4.7932825397838E-01
    65  6.4000000000000E-01  1.2325083909512E+00 -4.8050106709192E-01
    66  6.5000000000000E-01  1.2173018970775E+00 -4.8000787215008E-01
    67  6.6000000000000E-01  1.2012908688177E+00 -4.7790767190057E-01
    68  6.7000000000000E-01  1.1845085450595E+00 -4.7425823662548E-01
    69  6.8000000000000E-01  1.1669888836433E+00 -4.6911493668450E-01
    70  6.9000000000000E-01  1.1487665046783E+00 -4.6252967617192E-01
    71  7.0000000000000E-01  1.1298766333835E+00 -4.5454994173019E-01
    72  7.1000000000000E-01  1.1103550424914E+00 -4.4521797892664E-01
    73  7.2000000000000E-01  1.0902379942511E+00 -4.3457010681462E-01
    74  7.3000000000000E-01  1.0695621820595E+00 -4.2263617938904E-01
    75  7.4000000000000E-01  1.0483646717476E+00 -4.0943920062920E-01
    76  7.5000000000000E-01  1.0266828425453E+00 -3.9499509772689E-01
    77  7.6000000000000E-01  1.0045543277426E+00 -3.7931265494791E-01
    78  7.7000000000000E-01  9.8201695506834E-01 -3.6239360839910E-01
    79  7.8000000000000E-01  9.5910868680225E-01 -3.4423289979514E-01
    80  7.9000000000000E-01  9.3586755963995E-01 -3.2481908516747E-01
    81  8.0000000000000E-01  9.1233162432933E-01 -3.0413489235954E-01
    82  8.1000000000000E-01  8.8853888510091E-01 -2.8215791912919E-01
    83  8.2000000000000E-01  8.6452723891734E-01 -2.5886146176220E-01
    84  8.3000000000000E-01  8.4033441457224E-01 -2.3421546230771E-01
    85  8.4000000000000E-01  8.1599791167419E-01 -2.0818756090308E-01
    86  8.5000000000000E-01  7.9155493955819E-01 -1.8074423818101E-01
    87  8.6000000000000E-01  7.6704235617499E-01 -1.5185203146474E-01
    88  8.7000000000000E-01  7.4249660701689E-01 -1.2147880737325E-01
    89  8.8000000000000E-01  7.1795366414847E-01 -8.9595072592485E-02
    90  8.9000000000000E-01  6.9344896542061E-01 -5.6175303930490E-02
    91  9.0000000000000E-01  6.6901735395727E-01 -2.1199278373283E-02
    92  9.1000000000000E-01  6.4469301801565E-01  1.5346616299639E-02
    93  9.2000000000000E-01  6.2050943133247E-01  5.3468109695178E-02
    94  9.3000000000000E-01  5.9649929408059E-01  9.3161834805205E-02
    95  9.4000000000000E-01  5.7269447457298E-01  1.3441419027403E-01
    96  9.5000000000000E-01  5.4912595186250E-01  1.7720029657652E-01
    97  9.6000000000000E-01  5.2582375939805E-01  2.2148306271412E-01
    98  9.7000000000000E-01  5.0281692990909E-01  2.6721237878579E-01
    99  9.8000000000000E-01  4.8013344170107E-01  3.1432444834295E-01
   100  9.9000000000000E-01  4.5780016655468E-01  3.6274127280326E-01
   101  1.0000000000000E+00  4.3584281943065E-01  4.1237029840267E-01
   102  1.0100000000000E+00  4.1428591018999E-01  4.6310423422514E-01
   103  1.0200000000000E+00  3.9315269754617E-01  5.1482104779127E-01
   104  1.0300000000000E+00  3.7246514547115E-01  5.6738414253149E-01
   105  1.0400000000000E+00  3.5224388228056E-01  6.2064271924791E-01
   106  1.0500000000000E+00  3.3250816262555E-01  6.7443232140184E-01
   107  1.0600000000000E+00  3.1327583261885E-01  7.2857556178250E-01
   108  1.0700000000000E+00  2.9456329832048E-01  7.8288302584642E-01
   109  1.0800000000000E+00  2.7638549780495E-01  8.3715434478557E-01
   110  1.0900000000000E+00  2.5875587702529E-01  8.9117942922450E-01
   111  1.1000000000000E+00  2.4168636968145E-01  9.4473985237875E-01
   112  1.1100000000000E+00  2.2518738128957E-01  9.9761036956019E-01
   113  1.1200000000000E+00  2.0926777763632E-01  1.0495605591138E+00
   114  1.1300000000000E+00  1.9393487778726E-01  1.1003565682308E+00
   115  1.1400000000000E+00  1.7919445180111E-01  1.1497629456400E+00
   116  1.1500000000000E+00  1.6505072328255E-01  1.1975445419300E+00
   117  1.1600000000000E+00  1.5150637688468E-01  1.2434684572407E+00
   118  1.1700000000000E+00  1.3856257084922E-01  1.2873060152728E+00
   119  1.1800000000000E+00  1.2621895464713E-01  1.3288347420302E+00
   120  1.1900000000000E+00  1.1447369175600E-01  1.3678403274239E+00
   121  1.2000000000000E+00  1.0332348758185E-01  1.4041185478443E+00
   122  1.2100000000000E+00  9.2763622503969E-02  1.4374771280446E+00
   123  1.2200000000000E+00  8.2787989990439E-02  1.4677375211784E+00
   124  1.2300000000000E+00  7.3389139701006E-02  1.4947365865853E+00
   125  1.2400000000000E+00  6.4558325461674E-02  1.5183281459218E+00
   126  1.2500000000000E+00  5.6285557963320E-02  1.5383843994762E+00
   127  1.2600000000000E+00  4.8559662004319E-02  1.5547971859647E+00
   128  1.2700000000000E+00  4.1368338065024E-02  1.5674790707864E+00
   129  1.2800000000000E+00  3.4698227970518E-02  1.5763642495712E+00
   130  1.2900000000000E+00  2.8534984367385E-02  1.5814092558865E+00
   131  1.3000000000000E+00  2.2863343710600E-02  1.5825934641483E+00
   132  1.3100000000000E+00  1.7667202428588E-02  1.5799193810790E+00
   133  1.3200000000000E+00  1.2929695908069E-02  1.5734127214393E+00
   134  1.3300000000000E+00  8.6332799157667E-03  1.5631222662296E+00
   135  1.3400000000000E+00  4.7598140519150E-03  1.5491195040463E+00
   136  1.3500000000000E+00  1.2906468107730E-03  1.5314980587816E+00
   137  1.3600000000000E+00 -1.7932981936778E-03  1.5103729093400E+00
   138  1.3700000000000E+00 -4.5114352927062E-03  1.4858794094813E+00
   139  1.3800000000000E+00 -6.8834295852523E-03  1.4581721182481E+00
   140  1.3900000000000E+00 -8.9291099922152E-03  1.4274234536848E+00
   141  1.4000000000000E+00 -1.0668383021212E-02  1.3938221846669E+00
   142  1.4100000000000E+00 -1.2121147721075E-02  1.3575717776132E+00
   143  1.4200000000000E+00 -1.3307212302372E-02  1.3188886166229E+00
   144  1.4300000000000E+00 -1.4246212893583E-02  1.2780001171422E+00
   145  1.4400000000000E+00 -1.4957534892295E-02  1.2351427546063E+00
   146  1.4500000000000E+00 -1.5460237356705E-02  1.1905600306028E+00
   147  1.4600000000000E+00 -1.5772980865190E-02  1.1445003999480E+00
   148  1.4700000000000E+00 -1.5913959250543E-02  1.0972151826442E+00
   149  1.4800000000000E+00 -1.5900835590957E-02  1.0489564849930E+00
   150  1.4900000000000E+00 -1.5750682812080E-02  9.9997515416694E-01
   151  1.5000000000000E+00 -1.5479929223609E-02  9.5051879028823E-01
   152  1.5100000000000E+00 -1.5104309280291E-02  9.0082983953407E-01
   153  1.5200000000000E+00 -1.4638819820837E-02  8.5114379098346E-01
   154  1.5300000000000E+00 -1.4097681999751E-02  8.0168749885387E-01
   155  1.5400000000000E+00 -1.3494309086476E-02  7.5267765045499E-01
   156  1.5500000000000E+00 -1.2841280263939E-02  7.0431939862823E-01
   157  1.5600000000000E+00 -1.2150320514981E-02  6.5680517566058E-01
   158  1.5700000000000E+00 -1.1432286640486E-02  6.1031370368052E-01
   159  1.5800000000000E+00 -1.0697159407804E-02  5.6500921438345E-01
   160  1.5900000000000E+00 -9.9540417825671E-03  5.2104088862067E-01
   161  1.6000000000000E+00 -9.2111631516391E-03  4.7854252394277E-01
   162  1.6100000000000E+00 -8.4758894002059E-03  4.3763243564978E-01
   163  1.6200000000000E+00 -7.7547386621079E-03  3.9841359428580E-01
   164  1.6300000000000E+00 -7.0534025199995E-03  3.6097399986191E-01
   165  1.6400000000000E+00 -6.3767723910906E-03  3.2538729043282E-01
   166  1.6500000000000E+00 -5.7289707954718E-03  2.9171358000648E-01
   167  1.6600000000000E+00 -5.1133871720599E-03  2.6000051937116E-01
   168  1.6700000000000E+00 -4.5327178684805E-03  2.3028456925634E-01
   169  1.6800000000000E+00 -3.9890096598573E-03  2.0259240967988E-01
   170  1.6900000000000E+00 -3.4837078366253E-03  1.7694286511616E-01
   171  1.7000000000000E+00 -3.0176972542948E-03  1.5334631342043E-01
   172  1.7100000000000E+00 -2.5913173453608E-03  1.3179684473385E-01
   173  1.7200000000000E+00 -2.2043860750506E-03  1.1226711235688E-01
   174  1.7300000000000E+00 -1.8562503623773E-03  9.4710263381949E-02
   175  1.7400000000000E+00 -1.5458375413356E-03  7.9061887011827E-02
   176  1.7500000000000E+00 -1.2717078612642E-03  6.5242112007232E-02
   177  1.7600000000000E+00 -1.0321072540214E-03  5.3157758821344E-02
   178  1.7700000000000E+00 -8.2501983682663E-04  4.2704519577089E-02
   179  1.7800000000000E+00 -6.4821964100275E-04  3.3769141362266E-02
   180  1.7900000000000E+00 -4.9932091123929E-04  2.6231594636877E-02
   181  1.8000000000000E+00 -3.7582836458719E-04  1.9967110537935E-02
   182  1.8100000000000E+00 -2.7517745705414E-04  1.4848540355695E-02
   183  1.8200000000000E+00 -1.9482040693765E-04  1.0746168862140E-02
   184  1.8300000000000E+00 -1.3252825632207E-04  7.5177108447037E-03
   185  1.8400000000000E+00 -8.5878882029754E-05  5.0364589434529E-03
   186  1.8500000000000E+00 -5.2238547093144E-05  3.1942380208692E-03
   187  1.8600000000000E+00 -2.9168426267842E-05  1.8841868155746E-03
   188  1.8700000000000E+00 -1.4397303749426E-05  1.0048346795725E-03
   189  1.8800000000000E+00 -5.8488424259731E-06  4.6091602667681E-04
   190  1.8900000000000E+00 -1.6571861753534E-06  1.6435044551790E-04
   191  1.9000000000000E+00 -1.8000367769967E-07  3.4991665909285E-05
   192  1.9100000000000E+00  2.1964174627867E-08  1.5241529298640E-06
   193  1.9200000000000E+00 -1.1027878190334E-08 -1.5604530607839E-07
   194  1.9300000000000E+00  1.9243259065461E-09  1.5957876560068E-07
   195  1.94  0. -0.
   196  1.95 -0. -0.
   197  1.96  0.  0.
   198  1.97  0.  0.
   199  1.98  0.  0.
   200  1.99  0.  0.
   201  2.00  0.  0.
   202  2.01  0.  0.
   203  2.02  0.  0.
   204  2.03  0.  0.
   205  2.04  0.  0.
   206  2.05  0.  0.
   207  2.06  0.  0.
   208  2.07  0.  0.
   209  2.08  0.  0.
   210  2.09  0.  0.
   211  2.10  0.  0.
   212  2.11  0.  0.
   213  2.12  0.  0.
   214  2.13  0.  0.
   215  2.14  0.  0.
   216  2.15  0.  0.
   217  2.16  0.  0.
   218  2.17  0.  0.
   219  2.18  0.  0.
   220  2.19  0.  0.
   221  2.20  0.  0.
   222  2.21  0.  0.
   223  2.22  0.  0.
   224  2.23  0.  0.
   225  2.24  0.  0.
   226  2.25  0.  0.
   227  2.26  0.  0.
   228  2.27  0.  0.
   229  2.28  0.  0.
   230  2.29  0.  0.
   231  2.30  0.  0.
   232  2.31  0.  0.
   233  2.32  0.  0.
   234  2.33  0.  0.
   235  2.34  0.  0.
   236  2.35  0.  0.
   237  2.36  0.  0.
   238  2.37  0.  0.
   239  2.38  0.  0.
   240  2.39  0.  0.
   241  2.40  0.  0.
   242  2.41  0.  0.
   243  2.42  0.  0.
   244  2.43  0.  0.
   245  2.44  0.  0.
   246  2.45  0.  0.
   247  2.46  0.  0.
   248  2.47  0.  0.
   249  2.48  0.  0.
   250  2.49  0.  0.
   251  2.50  0.  0.
   252  2.51  0.  0.
   253  2.52  0.  0.
   254  2.53  0.  0.
   255  2.54  0.  0.
   256  2.55  0.  0.
   257  2.56  0.  0.
   258  2.57  0.  0.
   259  2.58  0.  0.
   260  2.59  0.  0.
   261  2.60  0.  0.
   262  2.61  0.  0.
   263  2.62  0.  0.
   264  2.63  0.  0.
   265  2.64  0.  0.
   266  2.65  0.  0.
   267  2.66  0.  0.
   268  2.67  0.  0.
   269  2.68  0.  0.
   270  2.69  0.  0.
   271  2.70  0.  0.
   272  2.71  0.  0.
   273  2.72  0.  0.
   274  2.73  0.  0.
   275  2.74  0.  0.
   276  2.75  0.  0.
   277  2.76  0.  0.
   278  2.77  0.  0.
   279  2.78  0.  0.
   280  2.79  0.  0.
   281  2.80  0.  0.
   282  2.81  0.  0.
   283  2.82  0.  0.
   284  2.83  0.  0.
   285  2.84  0.  0.
   286  2.85  0.  0.
   287  2.86  0.  0.
   288  2.87  0.  0.
   289  2.88  0.  0.
   290  2.89  0.  0.
   291  2.90  0.  0.
   292  2.91  0.  0.
   293  2.92  0.  0.
   294  2.93  0.  0.
   295  2.94  0.  0.
   296  2.95  0.  0.
   297  2.96  0.  0.
   298  2.97  0.  0.
   299  2.98  0.  0.
   300  2.99  0.  0.
   301  3.00  0.  0.
   302  3.01  0.  0.
   303  3.02  0.  0.
   304  3.03  0.  0.
   305  3.04  0.  0.
   306  3.05  0.  0.
   307  3.06  0.  0.
   308  3.07  0.  0.
   309  3.08  0.  0.
   310  3.09  0.  0.
   311  3.10  0.  0.
   312  3.11  0.  0.
   313  3.12  0.  0.
   314  3.13  0.  0.
   315  3.14  0.  0.
   316  3.15  0.  0.
   317  3.16  0.  0.
   318  3.17  0.  0.
   319  3.18  0.  0.
   320  3.19  0.  0.
   321  3.20  0.  0.
   322  3.21  0.  0.
   323  3.22  0.  0.
   324  3.23  0.  0.
   325  3.24  0.  0.
   326  3.25  0.  0.
   327  3.26  0.  0.
   328  3.27  0.  0.
   329  3.28  0.  0.
   330  3.29  0.  0.
   331  3.30  0.  0.
   332  3.31  0.  0.
   333  3.32  0.  0.
   334  3.33  0.  0.
   335  3.34  0.  0.
   336  3.35  0.  0.
   337  3.36  0.  0.
   338  3.37  0.  0.
   339  3.38  0.  0.
   340  3.39  0.  0.
   341  3.40  0.  0.
   342  3.41  0.  0.
   343  3.42  0.  0.
   344  3.43  0.  0.
   345  3.44  0.  0.
   346  3.45  0.  0.
   347  3.46  0.  0.
   348  3.47  0.  0.
   349  3.48  0.  0.
   350  3.49  0.  0.
   351  3.50  0.  0.
   352  3.51  0.  0.
   353  3.52  0.  0.
   354  3.53  0.  0.
   355  3.54  0.  0.
   356  3.55  0.  0.
   357  3.56  0.  0.
   358  3.57  0.  0.
   359  3.58  0.  0.
   360  3.59  0.  0.
   361  3.60  0.  0.
   362  3.61  0.  0.
   363  3.62  0.  0.
   364  3.63  0.  0.
   365  3.64  0.  0.
   366  3.65  0.  0.
   367  3.66  0.  0.
   368  3.67  0.  0.
   369  3.68  0.  0.
   370  3.69  0.  0.
   371  3.70  0.  0.
   372  3.71  0.  0.
   373  3.72  0.  0.
   374  3.73  0.  0.
   375  3.74  0.  0.
   376  3.75  0.  0.
   377  3.76  0.  0.
   378  3.77  0.  0.
   379  3.78  0.  0.
   380  3.79  0.  0.
   381  3.80  0.  0.
   382  3.81  0.  0.
   383  3.82  0.  0.
   384  3.83  0.  0.
   385  3.84  0.  0.
   386  3.85  0.  0.
   387  3.86  0.  0.
   388  3.87  0.  0.
   389  3.88  0.  0.
   390  3.89  0.  0.
   391  3.90  0.  0.
   392  3.91  0.  0.
   393  3.92  0.  0.
   394  3.93  0.  0.
   395  3.94  0.  0.
   396  3.95  0.  0.
   397  3.96  0.  0.
   398  3.97  0.  0.
   399  3.98  0.  0.
   400  3.99  0.  0.
   401  4.00  0.  0.
   402  4.01  0.  0.
   403  4.02  0.  0.
   404  4.03  0.  0.
   405  4.04  0.  0.
   406  4.05  0.  0.
   407  4.06  0.  0.
   408  4.07  0.  0.
   409  4.08  0.  0.
   410  4.09  0.  0.
   411  4.10  0.  0.
   412  4.11  0.  0.
   413  4.12  0.  0.
   414  4.13  0.  0.
   415  4.14  0.  0.
   416  4.15  0.  0.
   417  4.16  0.  0.
   418  4.17  0.  0.
   419  4.18  0.  0.
   420  4.19  0.  0.
   421  4.20  0.  0.
   422  4.21  0.  0.
   423  4.22  0.  0.
   424  4.23  0.  0.
   425  4.24  0.  0.
   426  4.25  0.  0.
   427  4.26  0.  0.
   428  4.27  0.  0.
   429  4.28  0.  0.
   430  4.29  0.  0.
   431  4.30  0.  0.
   432  4.31  0.  0.
   433  4.32  0.  0.
   434  4.33  0.  0.
   435  4.34  0.  0.
   436  4.35  0.  0.
   437  4.36  0.  0.
   438  4.37  0.  0.
   439  4.38  0.  0.
   440  4.39  0.  0.
   441  4.40  0.  0.
   442  4.41  0.  0.
   443  4.42  0.  0.
   444  4.43  0.  0.
   445  4.44  0.  0.
   446  4.45  0.  0.
   447  4.46  0.  0.
   448  4.47  0.  0.
   449  4.48  0.  0.
   450  4.49  0.  0.
   451  4.50  0.  0.
   452  4.51  0.  0.
   453  4.52  0.  0.
   454  4.53  0.  0.
   455  4.54  0.  0.
   456  4.55  0.  0.
   457  4.56  0.  0.
   458  4.57  0.  0.
   459  4.58  0.  0.
   460  4.59  0.  0.
   461  4.60  0.  0.
   462  4.61  0.  0.
   463  4.62  0.  0.
   464  4.63  0.  0.
   465  4.64  0.  0.
   466  4.65  0.  0.
   467  4.66  0.  0.
   468  4.67  0.  0.
   469  4.68  0.  0.
   470  4.69  0.  0.
   471  4.70  0.  0.
   472  4.71  0.  0.
   473  4.72  0.  0.
   474  4.73  0.  0.
   475  4.74  0.  0.
   476  4.75  0.  0.
   477  4.76  0.  0.
   478  4.77  0.  0.
   479  4.78  0.  0.
   480  4.79  0.  0.
   481  4.80  0.  0.
   482  4.81  0.  0.
   483  4.82  0.  0.
   484  4.83  0.  0.
   485  4.84  0.  0.
   486  4.85  0.  0.
   487  4.86  0.  0.
   488  4.87  0.  0.
   489  4.88  0.  0.
   490  4.89  0.  0.
   491  4.90  0.  0.
   492  4.91  0.  0.
   493  4.92  0.  0.
   494  4.93  0.  0.
   495  4.94  0.  0.
   496  4.95  0.  0.
   497  4.96  0.  0.
   498  4.97  0.  0.
   499  4.98  0.  0.
   500  4.99  0.  0.
   501  5.00  0.  0.
   502  5.01  0.  0.
   503  5.02  0.  0.
   504  5.03  0.  0.
   505  5.04  0.  0.
   506  5.05  0.  0.
   507  5.06  0.  0.
   508  5.07  0.  0.
   509  5.08  0.  0.
   510  5.09  0.  0.
   511  5.10  0.  0.
   512  5.11  0.  0.
   513  5.12  0.  0.
   514  5.13  0.  0.
   515  5.14  0.  0.
   516  5.15  0.  0.
   517  5.16  0.  0.
   518  5.17  0.  0.
   519  5.18  0.  0.
   520  5.19  0.  0.
   521  5.20  0.  0.
   522  5.21  0.  0.
   523  5.22  0.  0.
   524  5.23  0.  0.
   525  5.24  0.  0.
   526  5.25  0.  0.
   527  5.26  0.  0.
   528  5.27  0.  0.
   529  5.28  0.  0.
   530  5.29  0.  0.
   531  5.30  0.  0.
   532  5.31  0.  0.
   533  5.32  0.  0.
   534  5.33  0.  0.
   535  5.34  0.  0.
   536  5.35  0.  0.
   537  5.36  0.  0.
   538  5.37  0.  0.
   539  5.38  0.  0.
   540  5.39  0.  0.
   541  5.40  0.  0.
   542  5.41  0.  0.
   543  5.42  0.  0.
   544  5.43  0.  0.
   545  5.44  0.  0.
   546  5.45  0.  0.
   547  5.46  0.  0.
   548  5.47  0.  0.
   549  5.48  0.  0.
   550  5.49  0.  0.
   551  5.50  0.  0.
   552  5.51  0.  0.
   553  5.52  0.  0.
   554  5.53  0.  0.
   555  5.54  0.  0.
   556  5.55  0.  0.
   557  5.56  0.  0.
   558  5.57  0.  0.
   559  5.58  0.  0.
   560  5.59  0.  0.
   561  5.60  0.  0.
   562  5.61  0.  0.
   563  5.62  0.  0.
   564  5.63  0.  0.
   565  5.64  0.  0.
   566  5.65  0.  0.
   567  5.66  0.  0.
   568  5.67  0.  0.
   569  5.68  0.  0.
   570  5.69  0.  0.
   571  5.70  0.  0.
   572  5.71  0.  0.
   573  5.72  0.  0.
   574  5.73  0.  0.
   575  5.74  0.  0.
   576  5.75  0.  0.
   577  5.76  0.  0.
   578  5.77  0.  0.
   579  5.78  0.  0.
   580  5.79  0.  0.
   581  5.80  0.  0.
   582  5.81  0.  0.
   583  5.82  0.  0.
   584  5.83  0.  0.
   585  5.84  0.  0.
   586  5.85  0.  0.
   587  5.86  0.  0.
   588  5.87  0.  0.
   589  5.88  0.  0.
   590  5.89  0.  0.
   591  5.90  0.  0.
   592  5.91  0.  0.
   593  5.92  0.  0.
   594  5.93  0.  0.
   595  5.94  0.  0.
   596  5.95  0.  0.
   597  5.96  0.  0.
   598  5.97  0.  0.
   599  5.98  0.  0.
   600  5.99  0.  0.
   1                        -5.9820925898635E+00 -1.8240871499074E+00
     1  0.0000000000000E+00  7.2460533406815E-10 -2.6708517342211E-09
     2  1.0000000000000E-02  1.3385064297819E-03 -1.1905004358226E-03
     3  2.0000000000000E-02  5.3483285576811E-03 -4.7512372636232E-03
     4  3.0000000000000E-02  1.2012413191363E-02 -1.0650032432259E-02
     5  4.0000000000000E-02  2.1302465580576E-02 -1.8833638983612E-02
     6  5.0000000000000E-02  3.3179138867153E-02 -2.9228310517855E-02
     7  6.0000000000000E-02  4.7592296522634E-02 -4.1740588068363E-02
     8  7.0000000000000E-02  6.4481345024342E-02 -5.6258294183312E-02
     9  8.0000000000000E-02  8.3775633296096E-02 -7.2651721340120E-02
    10  9.0000000000000E-02  1.0539491475991E-01 -9.0774999327388E-02
    11  1.0000000000000E-01  1.2924986721816E-01 -1.1046762395043E-01
    12  1.1000000000000E-01  1.5524266522035E-01 -1.3155612738293E-01
    13  1.2000000000000E-01  1.8326759907099E-01 -1.5385586872668E-01
    14  1.3000000000000E-01  2.1321173421268E-01 -1.7717292187782E-01
    15  1.4000000000000E-01  2.4495560437492E-01 -2.0130603665238E-01
    16  1.5000000000000E-01  2.7837393161976E-01 -2.2604864831035E-01
    17  1.6000000000000E-01  3.1333636624268E-01 -2.5119091014894E-01
    18  1.7000000000000E-01  3.4970823940242E-01 -2.7652172371635E-01
    19  1.8000000000000E-01  3.8735132135829E-01 -3.0183074142984E-01
    20  1.9000000000000E-01  4.2612457828644E-01 -3.2691031696151E-01
    21  2.0000000000000E-01  4.6588492082599E-01 -3.5155737967398E-01
    22  2.1000000000000E-01  5.0648793776945E-01 -3.7557521063208E-01
    23  2.2000000000000E-01  5.4778860865431E-01 -3.9877509926853E-01
    24  2.3000000000000E-01  5.8964198942971E-01 -4.2097786161766E-01
    25  2.4000000000000E-01  6.3190386585745E-01 -4.4201520312703E-01
    26  2.5000000000000E-01  6.7443136985272E-01 -4.6173091138050E-01
    27  2.6000000000000E-01  7.1708355456934E-01 -4.7998186658565E-01
    28  2.7000000000000E-01  7.5972192467850E-01 -4.9663886035703E-01
    29  2.8000000000000E-01  8.0221091896919E-01 -5.1158721612655E-01
    30  2.9000000000000E-01  8.4441834310395E-01 -5.2472720739256E-01
    31  3.0000000000000E-01  8.8621575108448E-01 -5.3597427293976E-01
    32  3.1000000000000E-01  9.2747877470835E-01 -5.4525903107998E-01
    33  3.2000000000000E-01  9.6808740102063E-01 -5.5252709783839E-01
    34  3.3000000000000E-01  1.0079261984715E+00 -5.5773871679902E-01
    35  3.4000000000000E-01  1.0468844931744E+00 -5.6086821098727E-01
    36  3.5000000000000E-01  1.0848564973095E+00 -5.6190326966858E-01
    37  3.6000000000000E-01  1.1217413923218E+00 -5.6084408524336E-01
    38  3.7000000000000E-01  1.1574433701218E+00 -5.5770235748791E-01
    39  3.8000000000000E-01  1.1918716359903E+00 -5.5250018419765E-01
    40  3.9000000000000E-01  1.2249403773225E+00 -5.4526885880750E-01
    41  4.0000000000000E-01  1.2565687027067E+00 -5.3604759677206E-01
    42  4.1000000000000E-01  1.2866805561143E+00 -5.2488221336831E-01
    43  4.2000000000000E-01  1.3152046111876E+00 -5.1182377612200E-01
    44  4.3000000000000E-01  1.3420741507292E+00 -4.9692725524874E-01
    45  4.4000000000000E-01  1.3672269365396E+00 -4.8025019533820E-01
    46  4.5000000000000E-01  1.3906050747042E+00 -4.6185143099711E-01
    47  4.6000000000000E-01  1.4121548813033E+00 -4.4178986831068E-01
    48  4.7000000000000E-01  1.4318267533135E+00 -4.2012335279508E-01
    49  4.8000000000000E-01  1.4495750491839E+00 -3.9690764301230E-01
    50  4.9000000000000E-01  1.4653579832158E+00 -3.7219550722390E-01
    51  5.0000000000000E-01  1.4791375374513E+00 -3.4603595839893E-01
    52  5.1000000000000E-01  1.4908793942947E+00 -3.1847364059140E-01
    53  5.2000000000000E-01  1.5005528925556E+00 -2.8954837719915E-01
    54  5.3000000000000E-01  1.5081310090226E+00 -2.5929488894341E-01
    55  5.4000000000000E-01  1.5135903670622E+00 -2.2774268660678E-01
    56  5.5000000000000E-01  1.5169112730973E+00 -1.9491614067682E-01
    57  5.6000000000000E-01  1.5180777811614E+00 -1.6083472710538E-01
    58  5.7000000000000E-01  1.5170777850613E+00 -1.2551344545409E-01
    59  5.8000000000000E-01  1.5139031370229E+00 -8.8963402795610E-02
    60  5.9000000000000E-01  1.5085497910478E+00 -5.1192553923905E-02
    61  6.0000000000000E-01  1.5010179685886E+00 -1.2206585734450E-02
    62  6.1000000000000E-01  1.4913123435624E+00  2.7990068891004E-02
    63  6.2000000000000E-01  1.4794422431775E+00  6.9393104682958E-02
    64  6.3000000000000E-01  1.4654218605582E+00  1.1199712413726E-01
    65  6.4000000000000E-01  1.4492704747147E+00  1.5579434510545E-01
    66  6.5000000000000E-01  1.4310126730440E+00  2.0077325821661E-01
    67  6.6000000000000E-01  1.4106785712512E+00  2.4691725771160E-01
    68  6.7000000000000E-01  1.3883040253657E+00  2.9420327011272E-01
    69  6.8000000000000E-01  1.3639308303954E+00  3.4260040563449E-01
    70  6.9000000000000E-01  1.3376069001111E+00  3.9206865735397E-01
    71  7.0000000000000E-01  1.3093864224965E+00  4.4255767289716E-01
    72  7.1000000000000E-01  1.2793299855188E+00  4.9400562276275E-01
    73  7.2000000000000E-01  1.2475046680955E+00  5.4633818840023E-01
    74  7.3000000000000E-01  1.2139840914215E+00  5.9946769179888E-01
    75  7.4000000000000E-01  1.1788484262065E+00  6.5329238664271E-01
    76  7.5000000000000E-01  1.1421843518211E+00  7.0769592906563E-01
    77  7.6000000000000E-01  1.1040849638807E+00  7.6254704372735E-01
    78  7.7000000000000E-01  1.0646496273838E+00  8.1769939835349E-01
    79  7.8000000000000E-01  1.0239837731717E+00  8.7299169707766E-01
    80  7.9000000000000E-01  9.8219863616872E-01  9.2824799992737E-01
    81  8.0000000000000E-01  9.3941093460230E-01  9.8327827264894E-01
    82  8.1000000000000E-01  8.9574249016200E-01  1.0378791678136E+00
    83  8.2000000000000E-01  8.5131978984443E-01  1.0918350348323E+00
    84  8.3000000000000E-01  8.0627349102060E-01  1.1449191531764E+00
    85  8.4000000000000E-01  7.6073787205308E-01  1.1968951798029E+00
    86  8.5000000000000E-01  7.1485023156614E-01  1.2475187985612E+00
    87  8.6000000000000E-01  6.6875024022395E-01  1.2965395562640E+00
    88  8.7000000000000E-01  6.2257924958865E-01  1.3437028671751E+00
    89  8.8000000000000E-01  5.7647956330155E-01  1.3887521649524E+00
    90  8.9000000000000E-01  5.3059367644774E-01  1.4314311786180E+00
    91  9.0000000000000E-01  4.8506348951655E-01  1.4714863069530E+00
    92  9.1000000000000E-01  4.4002950385128E-01  1.5086690638570E+00
    93  9.2000000000000E-01  3.9563000588235E-01  1.5427385657076E+00
    94  9.3000000000000E-01  3.5200024775352E-01  1.5734640306247E+00
    95  9.4000000000000E-01  3.0927163217517E-01  1.6006272588061E+00
    96  9.5000000000000E-01  2.6757090946801E-01  1.6240250627695E+00
    97  9.6000000000000E-01  2.2701939479280E-01  1.6434716164207E+00
    98  9.7000000000000E-01  1.8773221349418E-01  1.6588006923727E+00
    99  9.8000000000000E-01  1.4981758232107E-01  1.6698677578543E+00
   100  9.9000000000000E-01  1.1337613402135E-01  1.6765519008747E+00
   101  1.0000000000000E+00  7.8500292449718E-02  1.6787575600214E+00
   102  1.0100000000000E+00  4.5273704876491E-02  1.6764160333614E+00
   103  1.0200000000000E+00  1.3770737647772E-02  1.6694867443425E+00
   104  1.0300000000000E+00 -1.5943959270012E-02  1.6579582453465E+00
   105  1.0400000000000E+00 -4.3815814018387E-02  1.6418489425756E+00
   106  1.0500000000000E+00 -6.9800616759733E-02  1.6212075292248E+00