Fe    ONCVPSP-4.0.1  r_core=   2.09643   2.12167   2.07150
     26.0000     16.0000      190723    zatom,zion,pspd
     8       2   2     4   600     0    pspcod,pspxc,lmax,lloc,mmax,r2well
  5.99000000  0.00000000  0.00000000    rchrg fchrg qchrg
     2     2     2     0     0    nproj
     1     1           extension_switch
   0                        -2.7195953571607E+00 -2.1381115667878E+00
     1  0.0000000000000E+00 -1.9238866055815E-10  1.8304865956331E-10
     2  1.0000000000000E-02  7.4708525910486E-02 -1.8518962348355E-02
     3  2.0000000000000E-02  1.4922163531374E-01 -3.6901899100273E-02
     4  3.0000000000000E-02  2.2334477480945E-01 -5.5013539563853E-02
     5  4.0000000000000E-02  2.9688511139474E-01 -7.2720117411812E-02
     6  5.0000000000000E-02  3.6965237817118E-01 -8.9890109299479E-02
     7  6.0000000000000E-02  4.4145970279904E-01 -1.0639495733631E-01
     8  7.0000000000000E-02  5.1212441317536E-01 -1.2210977024525E-01
     9  8.0000000000000E-02  5.8146881500495E-01 -1.3691399822730E-01
    10  9.0000000000000E-02  6.4932093617010E-01 -1.5069207677417E-01
    11  1.0000000000000E-01  7.1551523308491E-01 -1.6333403493817E-01
    12  1.1000000000000E-01  7.7989325453953E-01 -1.7473606387226E-01
    13  1.2000000000000E-01  8.4230425889628E-01 -1.8480104179275E-01
    14  1.3000000000000E-01  9.0260578089053E-01 -1.9343901188873E-01
    15  1.4000000000000E-01  9.6066414470940E-01 -2.0056761010210E-01
    16  1.5000000000000E-01  1.0163549204692E+00 -2.0611244012764E-01
    17  1.6000000000000E-01  1.0695633216813E+00 -2.1000739342861E-01
    18  1.7000000000000E-01  1.1201845417835E+00 -2.1219491252693E-01
    19  1.8000000000000E-01  1.1681240283167E+00 -2.1262619630274E-01
    20  1.9000000000000E-01  1.2132976938321E+00 -2.1126134652326E-01
    21  2.0000000000000E-01  1.2556320631354E+00 -2.0806945530860E-01
    22  2.1000000000000E-01  1.2950643569810E+00 -2.0302863373099E-01
    23  2.2000000000000E-01  1.3315425128430E+00 -1.9612598222638E-01
    24  2.3000000000000E-01  1.3650251438885E+00 -1.8735750397155E-01
    25  2.4000000000000E-01  1.3954814377606E+00 -1.7672796283986E-01
    26  2.5000000000000E-01  1.4228909972508E+00 -1.6425068799133E-01
    27  2.6000000000000E-01  1.4472436253788E+00 -1.4994732757302E-01
    28  2.7000000000000E-01  1.4685390578195E+00 -1.3384755440138E-01
    29  2.8000000000000E-01  1.4867866460014E+00 -1.1598872686353E-01
    30  2.9000000000000E-01  1.5020049945568E+00 -9.6415508608852E-02
    31  3.0000000000000E-01  1.5142215571168E+00 -7.5179450900123E-02
    32  3.1000000000000E-01  1.5234721947266E+00 -5.2338541754546E-02
    33  3.2000000000000E-01  1.5298007013858E+00 -2.7956726225074E-02
    34  3.3000000000000E-01  1.5332583014164E+00 -2.1034023515398E-03
    35  3.4000000000000E-01  1.5339031235010E+00  2.5147102554082E-02
    36  3.5000000000000E-01  1.5317996563382E+00  5.3716070533081E-02
    37  3.6000000000000E-01  1.5270181909131E+00  8.3520941714606E-02
    38  3.7000000000000E-01  1.5196342543856E+00  1.1447586835825E-01
    39  3.8000000000000E-01  1.5097280405582E+00  1.4649226944687E-01
    40  3.9000000000000E-01  1.4973838417986E+00  1.7947938116090E-01
    41  4.0000000000000E-01  1.4826894871564E+00  2.1334479869744E-01
    42  4.1000000000000E-01  1.4657357912396E+00  2.4799500507004E-01
    43  4.2000000000000E-01  1.4466160181963E+00  2.8333588273906E-01
    44  4.3000000000000E-01  1.4254253648913E+00  3.1927320417239E-01
    45  4.4000000000000E-01  1.4022604670718E+00  3.5571309772218E-01
    46  4.5000000000000E-01  1.3772189319917E+00  3.9256248552016E-01
    47  4.6000000000000E-01  1.3503989006043E+00  4.2972949043980E-01
    48  4.7000000000000E-01  1.3218986420514E+00  4.6712380954483E-01
    49  4.8000000000000E-01  1.2918161827724E+00  5.0465705183498E-01
    50  4.9000000000000E-01  1.2602489721309E+00  5.4224303850953E-01
    51  5.0000000000000E-01  1.2272935860207E+00  5.7979806439150E-01
    52  5.1000000000000E-01  1.1930454694660E+00  6.1724111958656E-01
    53  5.2000000000000E-01  1.1575987187790E+00  6.5449407088652E-01
    54  5.3000000000000E-01  1.1210459033857E+00  6.9148180286317E-01
    55  5.4000000000000E-01  1.0834779269850E+00  7.2813231903015E-01
    56  5.5000000000000E-01  1.0449839272652E+00  7.6437680387341E-01
    57  5.6000000000000E-01  1.0056512129778E+00  8.0014964696182E-01
    58  5.7000000000000E-01  9.6556523676167E-01  8.3538843074247E-01
    59  5.8000000000000E-01  9.2480960172164E-01  8.7003388399885E-01
    60  5.9000000000000E-01  8.8346609940710E-01  9.0402980329783E-01
    61  6.0000000000000E-01  8.4161477650370E-01  9.3732294507238E-01
    62  6.1000000000000E-01  7.9933402725134E-01  9.6986289127616E-01
    63  6.2000000000000E-01  7.5670070833852E-01  1.0016018918015E+00
    64  6.3000000000000E-01  7.1379027279690E-01  1.0324946870714E+00
    65  6.4000000000000E-01  6.7067691923419E-01  1.0624983143966E+00
    66  6.5000000000000E-01  6.2743375260047E-01  1.0915719018276E+00
    67  6.6000000000000E-01  5.8413295258270E-01  1.1196764533319E+00
    68  6.7000000000000E-01  5.4084594566731E-01  1.1467746291792E+00
    69  6.8000000000000E-01  4.9764357690015E-01  1.1728305254317E+00
    70  6.9000000000000E-01  4.5459627740815E-01  1.1978094564042E+00
    71  7.0000000000000E-01  4.1177422382688E-01  1.2216777438847E+00
    72  7.1000000000000E-01  3.6924748590157E-01  1.2444025167912E+00
    73  7.2000000000000E-01  3.2708615869547E-01  1.2659515247806E+00
    74  7.3000000000000E-01  2.8536047604689E-01  1.2862929691306E+00
    75  7.4000000000000E-01  2.4414090216188E-01  1.3053953539833E+00
    76  7.5000000000000E-01  2.0349819851206E-01  1.3232273607660E+00
    77  7.6000000000000E-01  1.6350346352260E-01  1.3397577483087E+00
    78  7.7000000000000E-01  1.2422814288087E-01  1.3549552808459E+00
    79  7.8000000000000E-01  8.5744008668710E-02  1.3687886857340E+00
    80  7.9000000000000E-01  4.8123105915736E-02  1.3812266423420E+00
    81  8.0000000000000E-01  1.1437665584796E-02  1.3922378031741E+00
    82  8.1000000000000E-01 -2.4240016572191E-02  1.4017908478779E+00
    83  8.2000000000000E-01 -5.8837735411979E-02  1.4098545703700E+00
    84  8.3000000000000E-01 -9.2283565733234E-02  1.4163979988907E+00
    85  8.4000000000000E-01 -1.2450608478377E-01  1.4213905483716E+00
    86  8.5000000000000E-01 -1.5543462674183E-01  1.4248022040843E+00
    87  8.6000000000000E-01 -1.8499956754073E-01  1.4266037351195E+00
    88  8.7000000000000E-01 -2.1313263799044E-01  1.4267669358527E+00
    89  8.8000000000000E-01 -2.3976726274991E-01  1.4252648931661E+00
    90  8.9000000000000E-01 -2.6483892232815E-01  1.4220722768341E+00
    91  9.0000000000000E-01 -2.8828553494128E-01  1.4171656501448E+00
    92  9.1000000000000E-01 -3.1004785473288E-01  1.4105237975213E+00
    93  9.2000000000000E-01 -3.3006988257856E-01  1.4021280656270E+00
    94  9.3000000000000E-01 -3.4829928544639E-01  1.3919627142042E+00
    95  9.4000000000000E-01 -3.6468782007521E-01  1.3800152726835E+00
    96  9.5000000000000E-01 -3.7919175656628E-01  1.3662768984484E+00
    97  9.6000000000000E-01 -3.9177229736100E-01  1.3507427325089E+00
    98  9.7000000000000E-01 -4.0239598700106E-01  1.3334122482700E+00
    99  9.8000000000000E-01 -4.1103510803937E-01  1.3142895890426E+00
   100  9.9000000000000E-01 -4.1766805848846E-01  1.2933838899640E+00
   101  1.0000000000000E+00 -4.2227970626186E-01  1.2707095800508E+00
   102  1.0100000000000E+00 -4.2486171617923E-01  1.2462866602172E+00
   103  1.0200000000000E+00 -4.2541284527008E-01  1.2201409532406E+00
   104  1.0300000000000E+00 -4.2393920232031E-01  1.1923043218524E+00
   105  1.0400000000000E+00 -4.2045446786059E-01  1.1628148513713E+00
   106  1.0500000000000E+00 -4.1498007109233E-01  1.1317169935715E+00
   107  1.0600000000000E+00 -4.0754532058399E-01  1.0990616687999E+00
   108  1.0700000000000E+00 -3.9818748594423E-01  1.0649063237013E+00
   109  1.0800000000000E+00 -3.8695182808628E-01  1.0293149423004E+00
   110  1.0900000000000E+00 -3.7389157613429E-01  9.9235800859796E-01
   111  1.1000000000000E+00 -3.5906784948682E-01  9.5411241927570E-01
   112  1.1100000000000E+00 -3.4254952403601E-01  9.1466134556143E-01
   113  1.1200000000000E+00 -3.2441304204325E-01  8.7409404378023E-01
   114  1.1300000000000E+00 -3.0474216568533E-01  8.3250561460011E-01
   115  1.1400000000000E+00 -2.8362767480592E-01  7.8999671147335E-01
   116  1.1500000000000E+00 -2.6116700992988E-01  7.4667319926748E-01
   117  1.1600000000000E+00 -2.3746386211810E-01  7.0264576457069E-01
   118  1.1700000000000E+00 -2.1262771175144E-01  6.5802947963858E-01
   119  1.1800000000000E+00 -1.8677331883226E-01  6.1294332242043E-01
   120  1.1900000000000E+00 -1.6002016787036E-01  5.6750965555458E-01
   121  1.2000000000000E+00 -1.3249187087996E-01  5.2185366765524E-01
   122  1.2100000000000E+00 -1.0431553244142E-01  4.7610278061578E-01
   123  1.2200000000000E+00 -7.5621081181283E-02  4.3038602702942E-01
   124  1.2300000000000E+00 -4.6540572384348E-02  3.8483340216695E-01
   125  1.2400000000000E+00 -1.7207466773109E-02  3.3957519525261E-01
   126  1.2500000000000E+00  1.2244109231310E-02  2.9474130504068E-01
   127  1.2600000000000E+00  4.1680116222175E-02  2.5046054490995E-01
   128  1.2700000000000E+00  7.0967361766108E-02  2.0685994286397E-01
   129  1.2800000000000E+00  9.9974261749272E-02  1.6406404194488E-01
   130  1.2900000000000E+00  1.2857159717343E-01  1.2219420663943E-01
   131  1.3000000000000E+00  1.5663326044046E-01  8.1367940874665E-02
   132  1.3100000000000E+00  1.8403698519410E-01  4.1698223167937E-02
   133  1.3200000000000E+00  2.1066505387320E-01  3.2928644106222E-03
   134  1.3300000000000E+00  2.3640497727005E-01 -3.3746106371426E-02
   135  1.3400000000000E+00  2.6115014058115E-01 -6.9323023125620E-02
   136  1.3500000000000E+00  2.8480041068284E-01 -1.0334912583046E-01
   137  1.3600000000000E+00  3.0726269965914E-01 -1.3574306086909E-01
   138  1.3700000000000E+00  3.2845147995274E-01 -1.6643133441451E-01
   139  1.3800000000000E+00  3.4828924689768E-01 -1.9534871489409E-01
   140  1.3900000000000E+00  3.6670692482151E-01 -2.2243858101212E-01
   141  1.4000000000000E+00  3.8364421337082E-01 -2.4765321225537E-01
   142  1.4100000000000E+00  3.9904987121419E-01 -2.7095401928440E-01
   143  1.4200000000000E+00  4.1288193480637E-01 -2.9231171211947E-01
   144  1.4300000000000E+00  4.2510787044923E-01 -3.1170640455664E-01
   145  1.4400000000000E+00  4.3570465845813E-01 -3.2912765379573E-01
   146  1.4500000000000E+00  4.4465880882734E-01 -3.4457443481970E-01
   147  1.4600000000000E+00  4.5196630838157E-01 -3.5805504962993E-01
   148  1.4700000000000E+00  4.5763249999945E-01 -3.6958697201150E-01
   149  1.4800000000000E+00  4.6167189508687E-01 -3.7919662906602E-01
   150  1.4900000000000E+00  4.6410792106443E-01 -3.8691912130604E-01
   151  1.5000000000000E+00  4.6497260620483E-01 -3.9279788364819E-01
   152  1.5100000000000E+00  4.6430620470857E-01 -3.9688429016588E-01
   153  1.5200000000000E+00  4.6215676543381E-01 -3.9923720596222E-01
   154  1.5300000000000E+00  4.5857964819417E-01 -3.9992248999495E-01
   155  1.5400000000000E+00  4.5363699200305E-01 -3.9901245312421E-01
   156  1.5500000000000E+00  4.4739714006702E-01 -3.9658527605370E-01
   157  1.5600000000000E+00  4.3993402671318E-01 -3.9272439219581E-01
   158  1.5700000000000E+00  4.3132653177106E-01 -3.8751784080571E-01
   159  1.5800000000000E+00  4.2165780821471E-01 -3.8105759599586E-01
   160  1.5900000000000E+00  4.1101458910364E-01 -3.7343887745878E-01
   161  1.6000000000000E+00  3.9948648003908E-01 -3.6475944888909E-01
   162  1.6100000000000E+00  3.8716524347291E-01 -3.5511891020433E-01
   163  1.6200000000000E+00  3.7414408126947E-01 -3.4461798971803E-01
   164  1.6300000000000E+00  3.6051692192465E-01 -3.3335784241455E-01
   165  1.6400000000000E+00  3.4637771879208E-01 -3.2143936041672E-01
   166  1.6500000000000E+00  3.3181976555265E-01 -3.0896250162121E-01
   167  1.6600000000000E+00  3.1693503499325E-01 -2.9602564230690E-01
   168  1.6700000000000E+00  3.0181354693382E-01 -2.8272495929761E-01
   169  1.6800000000000E+00  2.8654277086098E-01 -2.6915384698502E-01
   170  1.6900000000000E+00  2.7120706849541E-01 -2.5540237419455E-01
   171  1.7000000000000E+00  2.5588718113914E-01 -2.4155678550563E-01
   172  1.7100000000000E+00  2.4065976622504E-01 -2.2769905122652E-01
   173  1.7200000000000E+00  2.2559698702506E-01 -2.1390646977178E-01
   174  1.7300000000000E+00  2.1076615897231E-01 -2.0025132570533E-01
   175  1.7400000000000E+00  1.9622945551866E-01 -1.8680060619630E-01
   176  1.7500000000000E+00  1.8204367589030E-01 -1.7361577809418E-01
   177  1.7600000000000E+00  1.6826007652240E-01 -1.6075262726963E-01
   178  1.7700000000000E+00  1.5492426735773E-01 -1.4826116129154E-01
   179  1.7800000000000E+00  1.4207617358755E-01 -1.3618557592694E-01
   180  1.7900000000000E+00  1.2975006280198E-01 -1.2456428536203E-01
   181  1.8000000000000E+00  1.1797463690799E-01 -1.1343001545617E-01
   182  1.8100000000000E+00  1.0677318757141E-01 -1.0280995876232E-01
   183  1.8200000000000E+00  9.6163813350019E-02 -9.2725989481095E-02
   184  1.8300000000000E+00  8.6159696115174E-02 -8.3194935968162E-02
   185  1.8400000000000E+00  7.6769433813078E-02 -7.4228907890807E-02
   186  1.8500000000000E+00  6.7997426274431E-02 -6.5835674798846E-02
   187  1.8600000000000E+00  5.9844308913506E-02 -5.8019091099745E-02
   188  1.8700000000000E+00  5.2307434940926E-02 -5.0779567906311E-02
   189  1.8800000000000E+00  4.5381373383728E-02 -4.4114560620290E-02
   190  1.8900000000000E+00  3.9058496287385E-02 -3.8019141693326E-02
   191  1.9000000000000E+00  3.3327980688439E-02 -3.2485071051999E-02
   192  1.9100000000000E+00  2.8174367572994E-02 -2.7499444820078E-02
   193  1.9200000000000E+00  2.3577462718716E-02 -2.3044614684653E-02
   194  1.9300000000000E+00  1.9513034571822E-02 -1.9098862744249E-02
   195  1.9400000000000E+00  1.5953368657636E-02 -1.5636940718769E-02
   196  1.9500000000000E+00  1.2867855689017E-02 -1.2630641174056E-02
   197  1.9600000000000E+00  1.0223580213107E-02 -1.0049368923246E-02
   198  1.9700000000000E+00  7.9858625978460E-03 -7.8606712112456E-03
   199  1.9800000000000E+00  6.1189382124771E-03 -6.0308850146200E-03
   200  1.9900000000000E+00  4.5862581786028E-03 -4.5254530968537E-03
   201  2.0000000000000E+00  3.3485109832781E-03 -3.3072872436052E-03
   202  2.0100000000000E+00  2.3657930829028E-03 -2.3386996275254E-03
   203  2.0200000000000E+00  1.6054076646521E-03 -1.5881528623692E-03
   204  2.0300000000000E+00  1.0353642715742E-03 -1.0246904932209E-03
   205  2.0400000000000E+00  6.2475138529194E-04 -6.1830286835674E-04
   206  2.0500000000000E+00  3.4415789513291E-04 -3.4032961214072E-04
   207  2.0600000000000E+00  1.6596592831836E-04 -1.6374426867444E-04
   208  2.0700000000000E+00  6.4600597965414E-05 -6.3397651213495E-05
   209  2.0800000000000E+00  1.6724299600847E-05 -1.6210939792249E-05
   210  2.0900000000000E+00  1.5225499212726E-06 -1.4108538260807E-06
   211  2.1000000000000E+00 -9.4078038385276E-08  7.7575380387459E-08
   212  2.1100000000000E+00  1.8840919816563E-08 -1.7282299173121E-08
   213  2.12  0. -0.
   214  2.13 -0.  0.
   215  2.14 -0.  0.
   216  2.15  0.  0.
   217  2.16  0.  0.
   218  2.17  0.  0.
   219  2.18  0.  0.
   220  2.19  0.  0.
   221  2.20  0.  0.
   222  2.21  0.  0.
   223  2.22  0.  0.
   224  2.23  0.  0.
   225  2.24  0.  0.
   226  2.25  0.  0.
   227  2.26  0.  0.
   228  2.27  0.  0.
   229  2.28  0.  0.
   230  2.29  0.  0.
   231  2.30  0.  0.
   232  2.31  0.  0.
   233  2.32  0.  0.
   234  2.33  0.  0.
   235  2.34  0.  0.
   236  2.35  0.  0.
   237  2.36  0.  0.
   238  2.37  0.  0.
   239  2.38  0.  0.
   240  2.39  0.  0.
   241  2.40  0.  0.
   242  2.41  0.  0.
   243  2.42  0.  0.
   244  2.43  0.  0.
   245  2.44  0.  0.
   246  2.45  0.  0.
   247  2.46  0.  0.
   248  2.47  0.  0.
   249  2.48  0.  0.
   250  2.49  0.  0.
   251  2.50  0.  0.
   252  2.51  0.  0.
   253  2.52  0.  0.
   254  2.53  0.  0.
   255  2.54  0.  0.
   256  2.55  0.  0.
   257  2.56  0.  0.
   258  2.57  0.  0.
   259  2.58  0.  0.
   260  2.59  0.  0.
   261  2.60  0.  0.
   262  2.61  0.  0.
   263  2.62  0.  0.
   264  2.63  0.  0.
   265  2.64  0.  0.
   266  2.65  0.  0.
   267  2.66  0.  0.
   268  2.67  0.  0.
   269  2.68  0.  0.
   270  2.69  0.  0.
   271  2.70  0.  0.
   272  2.71  0.  0.
   273  2.72  0.  0.
   274  2.73  0.  0.
   275  2.74  0.  0.
   276  2.75  0.  0.
   277  2.76  0.  0.
   278  2.77  0.  0.
   279  2.78  0.  0.
   280  2.79  0.  0.
   281  2.80  0.  0.
   282  2.81  0.  0.
   283  2.82  0.  0.
   284  2.83  0.  0.
   285  2.84  0.  0.
   286  2.85  0.  0.
   287  2.86  0.  0.
   288  2.87  0.  0.
   289  2.88  0.  0.
   290  2.89  0.  0.
   291  2.90  0.  0.
   292  2.91  0.  0.
   293  2.92  0.  0.
   294  2.93  0.  0.
   295  2.94  0.  0.
   296  2.95  0.  0.
   297  2.96  0.  0.
   298  2.97  0.  0.
   299  2.98  0.  0.
   300  2.99  0.  0.
   301  3.00  0.  0.
   302  3.01  0.  0.
   303  3.02  0.  0.
   304  3.03  0.  0.
   305  3.04  0.  0.
   306  3.05  0.  0.
   307  3.06  0.  0.
   308  3.07  0.  0.
   309  3.08  0.  0.
   310  3.09  0.  0.
   311  3.10  0.  0.
   312  3.11  0.  0.
   313  3.12  0.  0.
   314  3.13  0.  0.
   315  3.14  0.  0.
   316  3.15  0.  0.
   317  3.16  0.  0.
   318  3.17  0.  0.
   319  3.18  0.  0.
   320  3.19  0.  0.
   321  3.20  0.  0.
   322  3.21  0.  0.
   323  3.22  0.  0.
   324  3.23  0.  0.
   325  3.24  0.  0.
   326  3.25  0.  0.
   327  3.26  0.  0.
   328  3.27  0.  0.
   329  3.28  0.  0.
   330  3.29  0.  0.
   331  3.30  0.  0.
   332  3.31  0.  0.
   333  3.32  0.  0.
   334  3.33  0.  0.
   335  3.34  0.  0.
   336  3.35  0.  0.
   337  3.36  0.  0.
   338  3.37  0.  0.
   339  3.38  0.  0.
   340  3.39  0.  0.
   341  3.40  0.  0.
   342  3.41  0.  0.
   343  3.42  0.  0.
   344  3.43  0.  0.
   345  3.44  0.  0.
   346  3.45  0.  0.
   347  3.46  0.  0.
   348  3.47  0.  0.
   349  3.48  0.  0.
   350  3.49  0.  0.
   351  3.50  0.  0.
   352  3.51  0.  0.
   353  3.52  0.  0.
   354  3.53  0.  0.
   355  3.54  0.  0.
   356  3.55  0.  0.
   357  3.56  0.  0.
   358  3.57  0.  0.
   359  3.58  0.  0.
   360  3.59  0.  0.
   361  3.60  0.  0.
   362  3.61  0.  0.
   363  3.62  0.  0.
   364  3.63  0.  0.
   365  3.64  0.  0.
   366  3.65  0.  0.
   367  3.66  0.  0.
   368  3.67  0.  0.
   369  3.68  0.  0.
   370  3.69  0.  0.
   371  3.70  0.  0.
   372  3.71  0.  0.
   373  3.72  0.  0.
   374  3.73  0.  0.
   375  3.74  0.  0.
   376  3.75  0.  0.
   377  3.76  0.  0.
   378  3.77  0.  0.
   379  3.78  0.  0.
   380  3.79  0.  0.
   381  3.80  0.  0.
   382  3.81  0.  0.
   383  3.82  0.  0.
   384  3.83  0.  0.
   385  3.84  0.  0.
   386  3.85  0.  0.
   387  3.86  0.  0.
   388  3.87  0.  0.
   389  3.88  0.  0.
   390  3.89  0.  0.
   391  3.90  0.  0.
   392  3.91  0.  0.
   393  3.92  0.  0.
   394  3.93  0.  0.
   395  3.94  0.  0.
   396  3.95  0.  0.
   397  3.96  0.  0.
   398  3.97  0.  0.
   399  3.98  0.  0.
   400  3.99  0.  0.
   401  4.00  0.  0.
   402  4.01  0.  0.
   403  4.02  0.  0.
   404  4.03  0.  0.
   405  4.04  0.  0.
   406  4.05  0.  0.
   407  4.06  0.  0.
   408  4.07  0.  0.
   409  4.08  0.  0.
   410  4.09  0.  0.
   411  4.10  0.  0.
   412  4.11  0.  0.
   413  4.12  0.  0.
   414  4.13  0.  0.
   415  4.14  0.  0.
   416  4.15  0.  0.
   417  4.16  0.  0.
   418  4.17  0.  0.
   419  4.18  0.  0.
   420  4.19  0.  0.
   421  4.20  0.  0.
   422  4.21  0.  0.
   423  4.22  0.  0.
   424  4.23  0.  0.
   425  4.24  0.  0.
   426  4.25  0.  0.
   427  4.26  0.  0.
   428  4.27  0.  0.
   429  4.28  0.  0.
   430  4.29  0.  0.
   431  4.30  0.  0.
   432  4.31  0.  0.
   433  4.32  0.  0.
   434  4.33  0.  0.
   435  4.34  0.  0.
   436  4.35  0.  0.
   437  4.36  0.  0.
   438  4.37  0.  0.
   439  4.38  0.  0.
   440  4.39  0.  0.
   441  4.40  0.  0.
   442  4.41  0.  0.
   443  4.42  0.  0.
   444  4.43  0.  0.
   445  4.44  0.  0.
   446  4.45  0.  0.
   447  4.46  0.  0.
   448  4.47  0.  0.
   449  4.48  0.  0.
   450  4.49  0.  0.
   451  4.50  0.  0.
   452  4.51  0.  0.
   453  4.52  0.  0.
   454  4.53  0.  0.
   455  4.54  0.  0.
   456  4.55  0.  0.
   457  4.56  0.  0.
   458  4.57  0.  0.
   459  4.58  0.  0.
   460  4.59  0.  0.
   461  4.60  0.  0.
   462  4.61  0.  0.
   463  4.62  0.  0.
   464  4.63  0.  0.
   465  4.64  0.  0.
   466  4.65  0.  0.
   467  4.66  0.  0.
   468  4.67  0.  0.
   469  4.68  0.  0.
   470  4.69  0.  0.
   471  4.70  0.  0.
   472  4.71  0.  0.
   473  4.72  0.  0.
   474  4.73  0.  0.
   475  4.74  0.  0.
   476  4.75  0.  0.
   477  4.76  0.  0.
   478  4.77  0.  0.
   479  4.78  0.  0.
   480  4.79  0.  0.
   481  4.80  0.  0.
   482  4.81  0.  0.
   483  4.82  0.  0.
   484  4.83  0.  0.
   485  4.84  0.  0.
   486  4.85  0.  0.
   487  4.86  0.  0.
   488  4.87  0.  0.
   489  4.88  0.  0.
   490  4.89  0.  0.
   491  4.90  0.  0.
   492  4.91  0.  0.
   493  4.92  0.  0.
   494  4.93  0.  0.
   495  4.94  0.  0.
   496  4.95  0.  0.
   497  4.96  0.  0.
   498  4.97  0.  0.
   499  4.98  0.  0.
   500  4.99  0.  0.
   501  5.00  0.  0.
   502  5.01  0.  0.
   503  5.02  0.  0.
   504  5.03  0.  0.
   505  5.04  0.  0.
   506  5.05  0.  0.
   507  5.06  0.  0.
   508  5.07  0.  0.
   509  5.08  0.  0.
   510  5.09  0.  0.
   511  5.10  0.  0.
   512  5.11  0.  0.
   513  5.12  0.  0.
   514  5.13  0.  0.
   515  5.14  0.  0.
   516  5.15  0.  0.
   517  5.16  0.  0.
   518  5.17  0.  0.
   519  5.18  0.  0.
   520  5.19  0.  0.
   521  5.20  0.  0.
   522  5.21  0.  0.
   523  5.22  0.  0.
   524  5.23  0.  0.
   525  5.24  0.  0.
   526  5.25  0.  0.
   527  5.26  0.  0.
   528  5.27  0.  0.
   529  5.28  0.  0.
   530  5.29  0.  0.
   531  5.30  0.  0.
   532  5.31  0.  0.
   533  5.32  0.  0.
   534  5.33  0.  0.
   535  5.34  0.  0.
   536  5.35  0.  0.
   537  5.36  0.  0.
   538  5.37  0.  0.
   539  5.38  0.  0.
   540  5.39  0.  0.
   541  5.40  0.  0.
   542  5.41  0.  0.
   543  5.42  0.  0.
   544  5.43  0.  0.
   545  5.44  0.  0.
   546  5.45  0.  0.
   547  5.46  0.  0.
   548  5.47  0.  0.
   549  5.48  0.  0.
   550  5.49  0.  0.
   551  5.50  0.  0.
   552  5.51  0.  0.
   553  5.52  0.  0.
   554  5.53  0.  0.
   555  5.54  0.  0.
   556  5.55  0.  0.
   557  5.56  0.  0.
   558  5.57  0.  0.
   559  5.58  0.  0.
   560  5.59  0.  0.
   561  5.60  0.  0.
   562  5.61  0.  0.
   563  5.62  0.  0.
   564  5.63  0.  0.
   565  5.64  0.  0.
   566  5.65  0.  0.
   567  5.66  0.  0.
   568  5.67  0.  0.
   569  5.68  0.  0.
   570  5.69  0.  0.
   571  5.70  0.  0.
   572  5.71  0.  0.
   573  5.72  0.  0.
   574  5.73  0.  0.
   575  5.74  0.  0.
   576  5.75  0.  0.
   577  5.76  0.  0.
   578  5.77  0.  0.
   579  5.78  0.  0.
   580  5.79  0.  0.
   581  5.80  0.  0.
   582  5.81  0.  0.
   583  5.82  0.  0.
   584  5.83  0.  0.
   585  5.84  0.  0.
   586  5.85  0.  0.
   587  5.86  0.  0.
   588  5.87  0.  0.
   589  5.88  0.  0.
   590  5.89  0.  0.
   591  5.90  0.  0.
   592  5.91  0.  0.
   593  5.92  0.  0.
   594  5.93  0.  0.
   595  5.94  0.  0.
   596  5.95  0.  0.
   597  5.96  0.  0.
   598  5.97  0.  0.
   599  5.98  0.  0.
   600  5.99  0.  0.
   1                        -4.5811550455019E+00 -1.3659607381964E+00
     1  0.0000000000000E+00  1.5181454704472E-10 -5.0192185130360E-10
     2  1.0000000000000E-02  1.0590715866416E-03 -8.9000659981039E-04
     3  2.0000000000000E-02  4.2329595978588E-03 -3.5547773381228E-03
     4  3.0000000000000E-02  9.5116972486822E-03 -7.9785981235713E-03
     5  4.0000000000000E-02  1.6878718019996E-02 -1.4135388838463E-02
     6  5.0000000000000E-02  2.6310922558328E-02 -2.1988867441231E-02
     7  6.0000000000000E-02  3.7778771770066E-02 -3.1492777820538E-02
     8  7.0000000000000E-02  5.1246405550401E-02 -4.2591179534148E-02
     9  8.0000000000000E-02  6.6671786435509E-02 -5.5218797063786E-02
    10  9.0000000000000E-02  8.4006867320713E-02 -6.9301425738776E-02
    11  1.0000000000000E-01  1.0319778224884E-01 -8.4756391030651E-02
    12  1.1000000000000E-01  1.2418505914278E-01 -1.0149305750269E-01
    13  1.2000000000000E-01  1.4690385323548E-01 -1.1941338331631E-01
    14  1.3000000000000E-01  1.7128419984012E-01 -1.3841251585441E-01
    15  1.4000000000000E-01  1.9725128500420E-01 -1.5837942372291E-01
    16  1.5000000000000E-01  2.2472573250384E-01 -1.7919756013883E-01
    17  1.6000000000000E-01  2.5362390556011E-01 -2.0074555250900E-01
    18  1.7000000000000E-01  2.8385822159779E-01 -2.2289791284841E-01
    19  1.8000000000000E-01  3.1533747831867E-01 -2.4552576358457E-01
    20  1.9000000000000E-01  3.4796718932761E-01 -2.6849757324214E-01
    21  2.0000000000000E-01  3.8164992752880E-01 -2.9167989650372E-01
    22  2.1000000000000E-01  4.1628567450315E-01 -3.1493811319448E-01
    23  2.2000000000000E-01  4.5177217408489E-01 -3.3813716084210E-01
    24  2.3000000000000E-01  4.8800528837560E-01 -3.6114225561608E-01
    25  2.4000000000000E-01  5.2487935446748E-01 -3.8381959665052E-01
    26  2.5000000000000E-01  5.6228754019325E-01 -4.0603704899958E-01
    27  2.6000000000000E-01  6.0012219727758E-01 -4.2766480076185E-01
    28  2.7000000000000E-01  6.3827521033355E-01 -4.4857599023549E-01
    29  2.8000000000000E-01  6.7663834022621E-01 -4.6864729932675E-01
    30  2.9000000000000E-01  7.1510356041290E-01 -4.8775950982561E-01
    31  3.0000000000000E-01  7.5356338496636E-01 -5.0579801958048E-01
    32  3.1000000000000E-01  7.9191118708907E-01 -5.2265331604303E-01
    33  3.2000000000000E-01  8.3004150703661E-01 -5.3822140511088E-01
    34  3.3000000000000E-01  8.6785034848104E-01 -5.5240419366401E-01
    35  3.4000000000000E-01  9.0523546246240E-01 -5.6510982466574E-01
    36  3.5000000000000E-01  9.4209661819570E-01 -5.7625296417557E-01
    37  3.6000000000000E-01  9.7833586012064E-01 -5.8575504009410E-01
    38  3.7000000000000E-01  1.0138577507017E+00 -5.9354443292441E-01
    39  3.8000000000000E-01  1.0485695986038E+00 -5.9955661928499E-01
    40  3.9000000000000E-01  1.0823816719858E+00 -6.0373426934124E-01
    41  4.0000000000000E-01  1.1152073967640E+00 -6.0602729973195E-01
    42  4.1000000000000E-01  1.1469635398068E+00 -6.0639288394940E-01
    43  4.2000000000000E-01  1.1775703771224E+00 -6.0479542248207E-01
    44  4.3000000000000E-01  1.2069518471943E+00 -6.0120647534599E-01
    45  4.4000000000000E-01  1.2350356897084E+00 -5.9560465990851E-01
    46  4.5000000000000E-01  1.2617535699931E+00 -5.8797551714685E-01
    47  4.6000000000000E-01  1.2870411895625E+00 -5.7831134967871E-01
    48  4.7000000000000E-01  1.3108383832143E+00 -5.6661103505314E-01
    49  4.8000000000000E-01  1.3330892031847E+00 -5.5287981789547E-01
    50  4.9000000000000E-01  1.3537419909002E+00 -5.3712908455853E-01
    51  5.0000000000000E-01  1.3727494369014E+00 -5.1937612394562E-01
    52  5.1000000000000E-01  1.3900686295277E+00 -4.9964387813665E-01
    53  5.2000000000000E-01  1.4056610929681E+00 -4.7796068637108E-01
    54  5.3000000000000E-01  1.4194928152782E+00 -4.5436002581869E-01
    55  5.4000000000000E-01  1.4315342669581E+00 -4.2888025240595E-01
    56  5.5000000000000E-01  1.4417604106652E+00 -4.0156434476285E-01
    57  5.6000000000000E-01  1.4501507026110E+00 -3.7245965411600E-01
    58  5.7000000000000E-01  1.4566890861556E+00 -3.4161766268188E-01
    59  5.8000000000000E-01  1.4613639780728E+00 -3.0909375281296E-01
    60  5.9000000000000E-01  1.4641682479118E+00 -2.7494698882313E-01
    61  6.0000000000000E-01  1.4650991908286E+00 -2.3923991307160E-01
    62  6.1000000000000E-01  1.4641584942040E+00 -2.0203835752130E-01
    63  6.2000000000000E-01  1.4613521983046E+00 -1.6341127161265E-01
    64  6.3000000000000E-01  1.4566906511835E+00 -1.2343056691263E-01
    65  6.4000000000000E-01  1.4501884579527E+00 -8.2170978615799E-02
    66  6.5000000000000E-01  1.4418644244969E+00 -3.9709943594612E-02
    67  6.6000000000000E-01  1.4317414956392E+00  3.8725056745470E-03
    68  6.7000000000000E-01  1.4198466877076E+00  4.8493832341102E-02
    69  6.8000000000000E-01  1.4062110153973E+00  9.4069072936719E-02
    70  6.9000000000000E-01  1.3908694127725E+00  1.4051090334665E-01
    71  7.0000000000000E-01  1.3738606482047E+00  1.8772969497446E-01
    72  7.1000000000000E-01  1.3552272330055E+00  2.3563356333805E-01
    73  7.2000000000000E-01  1.3350153234790E+00  2.8412841156020E-01
    74  7.3000000000000E-01  1.3132746160948E+00  3.3311797140473E-01
    75  7.4000000000000E-01  1.2900582354633E+00  3.8250384465641E-01
    76  7.5000000000000E-01  1.2654226147902E+00  4.3218554774818E-01
    77  7.6000000000000E-01  1.2394273684863E+00  4.8206056259972E-01
    78  7.7000000000000E-01  1.2121351566204E+00  5.3202439664670E-01
    79  7.8000000000000E-01  1.1836115409224E+00  5.8197065500905E-01
    80  7.9000000000000E-01  1.1539248320745E+00  6.3179112766983E-01
    81  8.0000000000000E-01  1.1231459280666E+00  6.8137589441256E-01
    82  8.1000000000000E-01  1.0913481434422E+00  7.3061345009801E-01
    83  8.2000000000000E-01  1.0586070293166E+00  7.7939085264962E-01
    84  8.3000000000000E-01  1.0250001841160E+00  8.2759389586518E-01
    85  8.4000000000000E-01  9.9060705505874E-01  8.7510730888139E-01
    86  8.5000000000000E-01  9.5550873048267E-01  9.2181498379202E-01
    87  8.6000000000000E-01  9.1978772320504E-01  9.6760023256255E-01
    88  8.7000000000000E-01  8.8352774519802E-01  1.0123460739985E+00
    89  8.8000000000000E-01  8.4681347395553E-01  1.0559355511157E+00
    90  8.9000000000000E-01  8.0973031102821E-01  1.0982520788324E+00
    91  9.0000000000000E-01  7.7236413330405E-01  1.1391798214630E+00
    92  9.1000000000000E-01  7.3480103771431E-01  1.1786040990412E+00
    93  9.2000000000000E-01  6.9712708014618E-01  1.2164118210500E+00