:MDSTEP: 20
:R(Bohr):
  3.9112902846E-01   2.6405981930E-01   1.4938176652E-01
  3.8680017732E+00   1.5352810532E+01   4.0191395328E+00
  7.9040291903E+00   1.5249876303E+01   1.9108749752E-01
  1.1422092197E+01   1.5359355332E+01   3.6950245022E+00
  9.8097537314E-02   7.8500855171E+00   1.5362560589E+01
  3.7782095303E+00   7.8431125530E+00   3.8209822944E+00
  7.4145302480E+00   7.5096043992E+00   9.5792492260E-02
  1.1542962526E+01   7.7560660894E+00   3.9767280232E+00
  5.4144003073E-01   1.5242376982E+01   7.7338893462E+00
  3.6978983837E+00   1.9959556026E-02   1.1323508406E+01
  7.6941849113E+00   3.4129099784E-02   7.8833359792E+00
  1.1568666792E+01   1.5243810643E+01   1.1687760460E+01
  1.9092100886E-01   7.7000383989E+00   7.8189606469E+00
  4.1074470967E+00   7.8312537158E+00   1.1509214065E+01
  7.4439653537E+00   7.9085491768E+00   7.5883376654E+00
  1.1547436629E+01   7.4173883177E+00   1.1512382352E+01
  5.4708228587E-02   3.9077625723E+00   3.9119923679E+00
  3.7704562322E+00   3.8609037413E+00   1.5368200220E+01
  7.7892888096E+00   3.7080698016E+00   3.5802831206E+00
  1.1451445316E+01   3.8174144959E+00   1.5270354419E+01
  3.0881040303E-01   1.1471834746E+01   3.8976748265E+00
  3.6983251481E+00   1.1564963515E+01   4.9003872453E-01
  7.7861038270E+00   1.1652816047E+01   3.8683603167E+00
  1.1244443791E+01   1.1520584461E+01   3.8287988876E-02
  8.8950441347E-02   3.7530197929E+00   1.1360877691E+01
  3.8401745883E+00   3.7476365569E+00   7.8627688076E+00
  7.8353840842E+00   3.7942856962E+00   1.1553241582E+01
  1.1434786965E+01   3.9312867947E+00   7.7783218808E+00
  2.9461143597E-01   1.1534842512E+01   1.1542426173E+01
  3.7646634364E+00   1.1351455245E+01   7.9704546634E+00
  7.7838376366E+00   1.1685935950E+01   1.1673197904E+01
  1.1614990624E+01   1.1542026539E+01   7.7748105877E+00
:V(Bohr/atu):
 -5.9078321809E-05   5.3236931854E-04   3.0146498589E-04
  8.4386087757E-05  -4.6590782111E-05   3.4663451751E-04
  4.1507265295E-04  -2.5506968933E-04  -2.5641956815E-04
 -2.0821860401E-04  -3.7979004480E-05  -2.8398730742E-04
  2.0101385494E-04   3.1332756106E-04  -3.3751066393E-05
 -1.4393115669E-04   3.2050356727E-04  -4.4006718040E-05
 -5.3916831865E-04  -3.6063214908E-04   2.0451974638E-04
  1.7759590955E-05   1.3405977912E-04   2.6629179188E-04
  2.0965287581E-04  -2.7212510327E-04   7.5633176372E-05
 -2.6643239472E-04   4.2569475589E-05  -4.0074457514E-04
  1.3993797196E-05   6.9557815578E-05  -2.3457970209E-04
  8.6608937968E-05  -2.6852474933E-04   3.2497159625E-04
  3.9469088494E-04   3.0506922087E-05   2.6797298060E-04
  5.1965008537E-04   2.7798185767E-04  -5.5102190208E-05
 -4.9204391330E-04   4.3712864994E-04  -2.0022201204E-04
  2.1187875691E-05  -5.6916725546E-04  -3.5242960428E-05
  1.2614367083E-04   1.1936662104E-04   1.4127058618E-04
 -1.5995540301E-04   3.3692249056E-05   2.4401729391E-05
  2.2381360313E-04  -2.8388751596E-04  -5.9506203349E-04
 -2.1754467842E-04  -2.8135701062E-05  -2.2674395915E-04
  8.5374789089E-05  -1.3495454546E-04   9.1184345331E-05
 -3.1890024210E-04   5.8235657787E-05   2.1465216389E-05
  2.3460450680E-04   2.4309413558E-04  -3.2240542954E-05
 -6.8440712230E-04  -4.5510001812E-06   1.2436715595E-04
  1.9307627240E-04  -1.7768787419E-04  -3.8784550434E-04
 -4.3128952750E-05  -2.0348146150E-04   4.0691210542E-04
  3.4600203524E-04  -9.4059316546E-05   2.3260443163E-05
 -2.0759791181E-04   1.7796681473E-04   1.9905664705E-04
  2.3527422712E-05   9.7625482612E-06  -4.6423965620E-05
 -2.4940334191E-04  -3.8158217373E-04  -4.5231152988E-04
  2.6949314427E-04   3.1434627831E-04   2.3552016828E-04
  1.3378289544E-04   1.7628721039E-05   2.3932092990E-04
:NPT_NH_QMASS: 4
 4000 4000 4000 4000
:NPT_NH_BMASS: 250000
:NPT_NH_vlogs: 4
 0.000133669888751975 -0.000398223539053204 -0.000383517525560489 -0.000364432732722474
:NPT_NH_vlogv: -6.98548491365925e-05
:NPT_NH_xlogs: 4
 0.00420181340344353 -0.0869313811774153 -0.0856333767109831 -0.0835054127503692
:LATVEC_SCALE: 15.3776530161111 15.3776530161111 15.3776530161111
:TTHRMI(K): 1120
:TARGET_PRESSURE: 0 GPa
:TEL(K): 1120
:TIO(K): 1104.93564860336
