Ba    ONCVPSP-3.3.1  r_core=   2.15444   1.91218   2.15444
     56.0000     10.0000      201113    zatom,zion,pspd
     8       2   2     4   600     0    pspcod,pspxc,lmax,lloc,mmax,r2well
  5.99000000  5.00000000  0.00000000    rchrg fchrg qchrg
     2     2     2     0     0    nproj
     1     1           extension_switch
   0                         6.6677820712586E+00  6.8544986705392E-01
     1  0.0000000000000E+00  5.8091309540487E-12 -1.6769936134198E-11
     2  1.0000000000000E-02  2.6031899622349E-02  1.0023720959526E-03
     3  2.0000000000000E-02  5.2067481537909E-02  1.9616922908037E-03
     4  3.0000000000000E-02  7.8110340308589E-02  2.8351677020232E-03
     5  4.0000000000000E-02  1.0416389542781E-01  3.5805223588986E-03
     6  5.0000000000000E-02  1.3023130477006E-01  4.1562528493538E-03
     7  6.0000000000000E-02  1.5631537921696E-01  4.5218806076925E-03
     8  7.0000000000000E-02  1.8241849884509E-01  4.6381997432739E-03
     9  8.0000000000000E-02  2.0854253105522E-01  4.4675193269021E-03
    10  9.0000000000000E-02  2.3468875101511E-01  3.9738990726017E-03
    11  1.0000000000000E-01  2.6085776477970E-01  3.1233773774262E-03
    12  1.1000000000000E-01  2.8704943544214E-01  1.8841907107588E-03
    13  1.2000000000000E-01  3.1326281265824E-01  2.2698337737651E-04
    14  1.3000000000000E-01  3.3949606587382E-01 -1.8749932850132E-03
    15  1.4000000000000E-01  3.6574642157091E-01 -4.4456931727969E-03
    16  1.5000000000000E-01  3.9201010483342E-01 -7.5061000035528E-03
    17  1.6000000000000E-01  4.1828228551683E-01 -1.1074065031605E-02
    18  1.7000000000000E-01  4.4455702928875E-01 -1.5164158650081E-02
    19  1.8000000000000E-01  4.7082725378920E-01 -1.9787536584497E-02
    20  1.9000000000000E-01  4.9708469013965E-01 -2.4951821326267E-02
    21  2.0000000000000E-01  5.2331985000979E-01 -3.0660999396002E-02
    22  2.1000000000000E-01  5.4952199842947E-01 -3.6915334964932E-02
    23  2.2000000000000E-01  5.7567913251163E-01 -4.3711300298903E-02
    24  2.3000000000000E-01  6.0177796622908E-01 -5.1041523424042E-02
    25  2.4000000000000E-01  6.2780392136449E-01 -5.8894753345028E-02
    26  2.5000000000000E-01  6.5374112472955E-01 -6.7255843078097E-02
    27  2.6000000000000E-01  6.7957241172425E-01 -7.6105750689900E-02
    28  2.7000000000000E-01  7.0527933628283E-01 -8.5421558461733E-02
    29  2.8000000000000E-01  7.3084218722793E-01 -9.5176510225934E-02
    30  2.9000000000000E-01  7.5624001102868E-01 -1.0534006684780E-01
    31  3.0000000000000E-01  7.8145064093370E-01 -1.1587797975282E-01
    32  3.1000000000000E-01  8.0645073242400E-01 -1.2675238232528E-01
    33  3.2000000000000E-01  8.3121580490555E-01 -1.3792189893027E-01
    34  3.3000000000000E-01  8.5572028953611E-01 -1.4934177123870E-01
    35  3.4000000000000E-01  8.7993758305577E-01 -1.6096400146152E-01
    36  3.5000000000000E-01  9.0384010746598E-01 -1.7273751202886E-01
    37  3.6000000000000E-01  9.2739937537772E-01 -1.8460832117873E-01
    38  3.7000000000000E-01  9.5058606082556E-01 -1.9651973385205E-01
    39  3.8000000000000E-01  9.7337007532141E-01 -2.0841254722324E-01
    40  3.9000000000000E-01  9.9572064889917E-01 -2.2022527013161E-01
    41  4.0000000000000E-01  1.0176064158801E+00 -2.3189435561576E-01
    42  4.1000000000000E-01  1.0389955050677E+00 -2.4335444569383E-01
    43  4.2000000000000E-01  1.0598556340613E+00 -2.5453862747561E-01
    44  4.3000000000000E-01  1.0801542073594E+00 -2.6537869963837E-01
    45  4.4000000000000E-01  1.0998584179038E+00 -2.7580544824841E-01
    46  4.5000000000000E-01  1.1189353517036E+00 -2.8574893086301E-01
    47  4.6000000000000E-01  1.1373520951579E+00 -2.9513876780491E-01
    48  4.7000000000000E-01  1.1550758446863E+00 -3.0390443946230E-01
    49  4.8000000000000E-01  1.1720740182614E+00 -3.1197558843232E-01
    50  4.9000000000000E-01  1.1883143684277E+00 -3.1928232529624E-01
    51  5.0000000000000E-01  1.2037650963823E+00 -3.2575553678826E-01
    52  5.1000000000000E-01  1.2183949666832E+00 -3.3132719509896E-01
    53  5.2000000000000E-01  1.2321734221468E+00 -3.3593066703843E-01
    54  5.3000000000000E-01  1.2450706984909E+00 -3.3950102177234E-01
    55  5.4000000000000E-01  1.2570579382750E+00 -3.4197533583899E-01
    56  5.5000000000000E-01  1.2681073036925E+00 -3.4329299415331E-01
    57  5.6000000000000E-01  1.2781920877650E+00 -3.4339598570889E-01
    58  5.7000000000000E-01  1.2872868234950E+00 -3.4222919269850E-01
    59  5.8000000000000E-01  1.2953673905367E+00 -3.3974067178777E-01
    60  5.9000000000000E-01  1.3024111189477E+00 -3.3588192629778E-01
    61  6.0000000000000E-01  1.3083968895959E+00 -3.3060816807708E-01
    62  6.1000000000000E-01  1.3133052308036E+00 -3.2387856787422E-01
    63  6.2000000000000E-01  1.3171184108193E+00 -3.1565649305841E-01
    64  6.3000000000000E-01  1.3198205257254E+00 -3.0590973157601E-01
    65  6.4000000000000E-01  1.3213975824005E+00 -2.9461070107687E-01
    66  6.5000000000000E-01  1.3218375761715E+00 -2.8173664219528E-01
    67  6.6000000000000E-01  1.3211305628105E+00 -2.6726979502580E-01
    68  6.7000000000000E-01  1.3192687245478E+00 -2.5119755789365E-01
    69  6.8000000000000E-01  1.3162464297940E+00 -2.3351262758463E-01
    70  6.9000000000000E-01  1.3120602862867E+00 -2.1421312026692E-01
    71  7.0000000000000E-01  1.3067091873994E+00 -1.9330267241017E-01
    72  7.1000000000000E-01  1.3001943513749E+00 -1.7079052108265E-01
    73  7.2000000000000E-01  1.2925193532713E+00 -1.4669156308685E-01
    74  7.3000000000000E-01  1.2836901494351E+00 -1.2102639247617E-01
    75  7.4000000000000E-01  1.2737150943430E+00 -9.3821316079820E-02
    76  7.5000000000000E-01  1.2626049496836E+00 -6.5108346751369E-02
    77  7.6000000000000E-01  1.2503728855772E+00 -3.4925174145035E-02
    78  7.7000000000000E-01  1.2370344738637E+00 -3.3151129155859E-03
    79  7.8000000000000E-01  1.2226076734178E+00  2.9672971670161E-02
    80  7.9000000000000E-01  1.2071128074802E+00  6.3984760628575E-02
    81  8.0000000000000E-01  1.1905725330268E+00  9.9560600485644E-02
    82  8.1000000000000E-01  1.1730118022268E+00  1.3633564456451E-01
    83  8.2000000000000E-01  1.1544578160724E+00  1.7424001597076E-01
    84  8.3000000000000E-01  1.1349399702924E+00  2.1319899181783E-01
    85  8.4000000000000E-01  1.1144897936960E+00  2.5313320814383E-01
    86  8.5000000000000E-01  1.0931408791175E+00  2.9395888487899E-01
    87  8.6000000000000E-01  1.0709288071690E+00  3.3558807013543E-01
    88  8.7000000000000E-01  1.0478910630318E+00  3.7792890300291E-01
    89  8.8000000000000E-01  1.0240669465475E+00  4.2088589395173E-01
    90  8.9000000000000E-01  9.9949747589888E-01  4.6436022186185E-01
    91  9.0000000000000E-01  9.7422528519363E-01  5.0825004662086E-01
    92  9.1000000000000E-01  9.4829451629161E-01  5.5245083615951E-01
    93  9.2000000000000E-01  9.2175070523987E-01  5.9685570672406E-01
    94  9.3000000000000E-01  8.9464066370158E-01  6.4135577512043E-01
    95  9.4000000000000E-01  8.6701235578697E-01  6.8584052160490E-01
    96  9.5000000000000E-01  8.3891477071356E-01  7.3019816204157E-01
    97  9.6000000000000E-01  8.1039779174102E-01  7.7431602789758E-01
    98  9.7000000000000E-01  7.8151206184218E-01  8.1808095260391E-01
    99  9.8000000000000E-01  7.5230884658609E-01  8.6137966277194E-01
   100  9.9000000000000E-01  7.2283989472158E-01  9.0409917272479E-01
   101  1.0000000000000E+00  6.9315729696025E-01  9.4612718077812E-01
   102  1.0100000000000E+00  6.6331334346604E-01  9.8735246568677E-01
   103  1.0200000000000E+00  6.3336038056562E-01  1.0276652816618E+00
   104  1.0300000000000E+00  6.0335066719742E-01  1.0669577503590E+00
   105  1.0400000000000E+00  5.7333623161994E-01  1.1051242482409E+00
   106  1.0500000000000E+00  5.4336872889949E-01  1.1420617877255E+00
   107  1.0600000000000E+00  5.1349929969563E-01  1.1776703905510E+00
   108  1.0700000000000E+00  4.8377843085847E-01  1.2118534518063E+00
   109  1.0800000000000E+00  4.5425581834520E-01  1.2445180931117E+00
   110  1.0900000000000E+00  4.2498023295470E-01  1.2755755034694E+00
   111  1.1000000000000E+00  3.9599938936824E-01  1.3049412663469E+00
   112  1.1100000000000E+00  3.6735981897164E-01  1.3325356716082E+00
   113  1.1200000000000E+00  3.3910674692018E-01  1.3582840109612E+00
   114  1.1300000000000E+00  3.1128397388910E-01  1.3821168556582E+00
   115  1.1400000000000E+00  2.8393376293478E-01  1.4039703152530E+00
   116  1.1500000000000E+00  2.5709673187091E-01  1.4237862762928E+00
   117  1.1600000000000E+00  2.3081175154393E-01  1.4415126198969E+00
   118  1.1700000000000E+00  2.0511585036401E-01  1.4571034172716E+00
   119  1.1800000000000E+00  1.8004412542329E-01  1.4705191023000E+00
   120  1.1900000000000E+00  1.5562966051097E-01  1.4817266204202E+00
   121  1.2000000000000E+00  1.3190345130188E-01  1.4906995531228E+00
   122  1.2100000000000E+00  1.0889433796539E-01  1.4974182174988E+00
   123  1.2200000000000E+00  8.6628945410638E-02  1.5018697403763E+00
   124  1.2300000000000E+00  6.5131631363842E-02  1.5040481066546E+00
   125  1.2400000000000E+00  4.4424442423626E-02  1.5039541816097E+00
   126  1.2500000000000E+00  2.4527078211739E-02  1.5015957070457E+00
   127  1.2600000000000E+00  5.4568637248822E-03  1.4969872712021E+00
   128  1.2700000000000E+00 -1.2771270072420E-02  1.4901502525501E+00
   129  1.2800000000000E+00 -3.0144797396991E-02  1.4811127376836E+00
   130  1.2900000000000E+00 -4.6653600530404E-02  1.4699094135425E+00
   131  1.3000000000000E+00 -6.2289964500049E-02  1.4565814344421E+00
   132  1.3100000000000E+00 -7.7048563645123E-02  1.4411762644541E+00
   133  1.3200000000000E+00 -9.0926440150589E-02  1.4237474956763E+00
   134  1.3300000000000E+00 -1.0392297472446E-01  1.4043546432249E+00
   135  1.3400000000000E+00 -1.1603984958954E-01  1.3830629177648E+00
   136  1.3500000000000E+00 -1.2728100397517E-01  1.3599429764454E+00
   137  1.3600000000000E+00 -1.3765258238047E-01  1.3350706533766E+00
   138  1.3700000000000E+00 -1.4716287585145E-01  1.3085266706859E+00
   139  1.3800000000000E+00 -1.5582225656423E-01  1.2803963313593E+00
   140  1.3900000000000E+00 -1.6364310606028E-01  1.2507691952209E+00
   141  1.4000000000000E+00 -1.7063973743504E-01  1.2197387392821E+00
   142  1.4100000000000E+00 -1.7682831188242E-01  1.1874020039850E+00
   143  1.4200000000000E+00 -1.8222674996577E-01  1.1538592267681E+00
   144  1.4300000000000E+00 -1.8685463801026E-01  1.1192134644619E+00
   145  1.4400000000000E+00 -1.9073313006791E-01  1.0835702061606E+00
   146  1.4500000000000E+00 -1.9388484585460E-01  1.0470369780914E+00
   147  1.4600000000000E+00 -1.9633376514130E-01  1.0097229422044E+00
   148  1.4700000000000E+00 -1.9810511903798E-01  9.7173849009287E-01
   149  1.4800000000000E+00 -1.9922527864672E-01  9.3319483395874E-01
   150  1.4900000000000E+00 -1.9972164155655E-01  8.9420359627501E-01
   151  1.5000000000000E+00 -1.9962251665656E-01  8.5487639987814E-01
   152  1.5100000000000E+00 -1.9895700774401E-01  8.1532446009550E-01
   153  1.5200000000000E+00 -1.9775489641011E-01  7.7565818064411E-01
   154  1.5300000000000E+00 -1.9604652467179E-01  7.3598675486120E-01
   155  1.5400000000000E+00 -1.9386267781834E-01  6.9641777389438E-01
   156  1.5500000000000E+00 -1.9123446794495E-01  6.5705684343962E-01
   157  1.5600000000000E+00 -1.8819321859250E-01  6.1800721040670E-01
   158  1.5700000000000E+00 -1.8477035098873E-01  5.7936940120106E-01
   159  1.5800000000000E+00 -1.8099727222442E-01  5.4124087262843E-01
   160  1.5900000000000E+00 -1.7690526589941E-01  5.0371567726776E-01
   161  1.6000000000000E+00 -1.7252538545865E-01  4.6688414385603E-01
   162  1.6100000000000E+00 -1.6788835079076E-01  4.3083257466761E-01
   163  1.6200000000000E+00 -1.6302444820925E-01  3.9564296004185E-01
   164  1.6300000000000E+00 -1.5796343437213E-01  3.6139271195653E-01
   165  1.6400000000000E+00 -1.5273444420612E-01  3.2815441660366E-01
   166  1.6500000000000E+00 -1.4736590333354E-01  2.9599560762286E-01
   167  1.6600000000000E+00 -1.4188544502261E-01  2.6497855978642E-01
   168  1.6700000000000E+00 -1.3631983209452E-01  2.3516010452828E-01
   169  1.6800000000000E+00 -1.3069488375462E-01  2.0659146691901E-01
   170  1.6900000000000E+00 -1.2503540772065E-01  1.7931812523818E-01
   171  1.7000000000000E+00 -1.1936513754606E-01  1.5337969249575E-01
   172  1.7100000000000E+00 -1.1370667546577E-01  1.2880982087157E-01
   173  1.7200000000000E+00 -1.0808144056961E-01  1.0563612809065E-01
   174  1.7300000000000E+00 -1.0250962260918E-01  8.3880146611299E-02
   175  1.7400000000000E+00 -9.7010141121962E-02  6.3557294208712E-02
   176  1.7500000000000E+00 -9.1600610186983E-02  4.4676866849072E-02
   177  1.7600000000000E+00 -8.6297308344137E-02  2.7242051899652E-02
   178  1.7700000000000E+00 -8.1115154031825E-02  1.1249962697726E-02
   179  1.7800000000000E+00 -7.6067685898081E-02 -3.3083080914886E-03
   180  1.7900000000000E+00 -7.1167048402762E-02 -1.6447615105980E-02
   181  1.8000000000000E+00 -6.6423981889710E-02 -2.8188670073158E-02
   182  1.8100000000000E+00 -6.1847817574741E-02 -3.8557933463595E-02
   183  1.8200000000000E+00 -5.7446476567300E-02 -4.7587491355860E-02
   184  1.8300000000000E+00 -5.3226473226268E-02 -5.5314916769324E-02
   185  1.8400000000000E+00 -4.9192922098095E-02 -6.1783118318170E-02
   186  1.8500000000000E+00 -4.5349547308239E-02 -6.7040181742213E-02
   187  1.8600000000000E+00 -4.1698700270367E-02 -7.1139176926243E-02
   188  1.8700000000000E+00 -3.8241368029413E-02 -7.4138011009227E-02
   189  1.8800000000000E+00 -3.4977198965451E-02 -7.6099207920436E-02
   190  1.8900000000000E+00 -3.1904551993446E-02 -7.7089584094627E-02
   191  1.9000000000000E+00 -2.9020471441639E-02 -7.7180252665307E-02
   192  1.9100000000000E+00 -2.6320597319946E-02 -7.6446962548102E-02
   193  1.9200000000000E+00 -2.3799506841977E-02 -7.4968425018238E-02
   194  1.9300000000000E+00 -2.1450892968988E-02 -7.2825379195894E-02
   195  1.9400000000000E+00 -1.9267806197948E-02 -7.0099484589232E-02
   196  1.9500000000000E+00 -1.7242988046937E-02 -6.6871797126397E-02
   197  1.9600000000000E+00 -1.5369059410884E-02 -6.3221925263154E-02
   198  1.9700000000000E+00 -1.3638527905748E-02 -5.9228039024933E-02
   199  1.9800000000000E+00 -1.2043838482984E-02 -5.4966701605773E-02
   200  1.9900000000000E+00 -1.0577524753934E-02 -5.0512195242356E-02
   201  2.0000000000000E+00 -9.2322720461516E-03 -4.5936280321317E-02
   202  2.0100000000000E+00 -8.0010076162566E-03 -4.1307822001965E-02
   203  2.0200000000000E+00 -6.8769826463551E-03 -3.6692455204527E-02
   204  2.0300000000000E+00 -5.8538495277538E-03 -3.2152270554933E-02
   205  2.0400000000000E+00 -4.9257352267213E-03 -2.7745516868281E-02
   206  2.0500000000000E+00 -4.0873106215434E-03 -2.3526321081503E-02
   207  2.0600000000000E+00 -3.3338542340183E-03 -1.9544431423892E-02
   208  2.0700000000000E+00 -2.6613114044031E-03 -1.5844979929981E-02
   209  2.0800000000000E+00 -2.0664258131187E-03 -1.2468770664823E-02
   210  2.0900000000000E+00 -1.5469068901457E-03 -9.4528593026932E-03
   211  2.1000000000000E+00 -1.0999686620496E-03 -6.8207450430693E-03
   212  2.1100000000000E+00 -7.2356567332315E-04 -4.5872271685558E-03
   213  2.1200000000000E+00 -4.2056613520246E-04 -2.7945867838595E-03
   214  2.1300000000000E+00 -1.9510142534294E-04 -1.4840664568696E-03
   215  2.1400000000000E+00 -4.7826064586035E-05 -6.6414536681336E-04
   216  2.1500000000000E+00  2.9070626709685E-05 -2.2365062928417E-04
   217  2.1600000000000E+00  4.6887525656640E-05 -3.4786219526840E-05
   218  2.1700000000000E+00  2.8183814751631E-05  1.3568551873738E-05
   219  2.1800000000000E+00  7.0811402415068E-07  6.4596024269870E-07
   220  2.1900000000000E+00 -8.6139870781441E-06 -9.9733038580188E-06
   221  2.2000000000000E+00 -5.3595852185289E-06 -7.1653580200164E-06
   222  2.2100000000000E+00  8.5537666404537E-07  5.6878480646829E-07
   223  2.2200000000000E+00  1.7688255379391E-06  1.3733027487840E-06
   224  2.2300000000000E+00  5.5864615906960E-07  4.8220300124032E-07
   225  2.2400000000000E+00 -9.8792650083340E-08  2.6663338228078E-07
   226  2.2500000000000E+00 -1.0949699103754E-07  2.9552353383860E-07
   227  2.2600000000000E+00  0.0000000000000E+00  0.0000000000000E+00
   228  2.2700000000000E+00  0.0000000000000E+00  0.0000000000000E+00
   229  2.2800000000000E+00  0.0000000000000E+00  0.0000000000000E+00
   230  2.2900000000000E+00  0.0000000000000E+00  0.0000000000000E+00
   231  2.3000000000000E+00  0.0000000000000E+00  0.0000000000000E+00
   232  2.3100000000000E+00  0.0000000000000E+00  0.0000000000000E+00
   233  2.3200000000000E+00  0.0000000000000E+00  0.0000000000000E+00
   234  2.3300000000000E+00  0.0000000000000E+00  0.0000000000000E+00
   235  2.3400000000000E+00  0.0000000000000E+00  0.0000000000000E+00
   236  2.3500000000000E+00  0.0000000000000E+00  0.0000000000000E+00
   237  2.3600000000000E+00  0.0000000000000E+00  0.0000000000000E+00
   238  2.3700000000000E+00  0.0000000000000E+00  0.0000000000000E+00
   239  2.3800000000000E+00  0.0000000000000E+00  0.0000000000000E+00
   240  2.3900000000000E+00  0.0000000000000E+00  0.0000000000000E+00
   241  2.4000000000000E+00  0.0000000000000E+00  0.0000000000000E+00
   242  2.4100000000000E+00  0.0000000000000E+00  0.0000000000000E+00
   243  2.4200000000000E+00  0.0000000000000E+00  0.0000000000000E+00
   244  2.4300000000000E+00  0.0000000000000E+00  0.0000000000000E+00
   245  2.4400000000000E+00  0.0000000000000E+00  0.0000000000000E+00
   246  2.4500000000000E+00  0.0000000000000E+00  0.0000000000000E+00
   247  2.4600000000000E+00  0.0000000000000E+00  0.0000000000000E+00
   248  2.4700000000000E+00  0.0000000000000E+00  0.0000000000000E+00
   249  2.4800000000000E+00  0.0000000000000E+00  0.0000000000000E+00
   250  2.4900000000000E+00  0.0000000000000E+00  0.0000000000000E+00
   251  2.5000000000000E+00  0.0000000000000E+00  0.0000000000000E+00
   252  2.5100000000000E+00  0.0000000000000E+00  0.0000000000000E+00
   253  2.5200000000000E+00  0.0000000000000E+00  0.0000000000000E+00
   254  2.5300000000000E+00  0.0000000000000E+00  0.0000000000000E+00
   255  2.5400000000000E+00  0.0000000000000E+00  0.0000000000000E+00
   256  2.5500000000000E+00  0.0000000000000E+00  0.0000000000000E+00
   257  2.5600000000000E+00  0.0000000000000E+00  0.0000000000000E+00
   258  2.5700000000000E+00  0.0000000000000E+00  0.0000000000000E+00
   259  2.5800000000000E+00  0.0000000000000E+00  0.0000000000000E+00
   260  2.5900000000000E+00  0.0000000000000E+00  0.0000000000000E+00
   261  2.6000000000000E+00  0.0000000000000E+00  0.0000000000000E+00
   262  2.6100000000000E+00  0.0000000000000E+00  0.0000000000000E+00
   263  2.6200000000000E+00  0.0000000000000E+00  0.0000000000000E+00
   264  2.6300000000000E+00  0.0000000000000E+00  0.0000000000000E+00
   265  2.6400000000000E+00  0.0000000000000E+00  0.0000000000000E+00
   266  2.6500000000000E+00  0.0000000000000E+00  0.0000000000000E+00
   267  2.6600000000000E+00  0.0000000000000E+00  0.0000000000000E+00
   268  2.6700000000000E+00  0.0000000000000E+00  0.0000000000000E+00
   269  2.6800000000000E+00  0.0000000000000E+00  0.0000000000000E+00
   270  2.6900000000000E+00  0.0000000000000E+00  0.0000000000000E+00
   271  2.7000000000000E+00  0.0000000000000E+00  0.0000000000000E+00
   272  2.7100000000000E+00  0.0000000000000E+00  0.0000000000000E+00
   273  2.7200000000000E+00  0.0000000000000E+00  0.0000000000000E+00
   274  2.7300000000000E+00  0.0000000000000E+00  0.0000000000000E+00
   275  2.7400000000000E+00  0.0000000000000E+00  0.0000000000000E+00
   276  2.7500000000000E+00  0.0000000000000E+00  0.0000000000000E+00
   277  2.7600000000000E+00  0.0000000000000E+00  0.0000000000000E+00
   278  2.7700000000000E+00  0.0000000000000E+00  0.0000000000000E+00
   279  2.7800000000000E+00  0.0000000000000E+00  0.0000000000000E+00
   280  2.7900000000000E+00  0.0000000000000E+00  0.0000000000000E+00
   281  2.8000000000000E+00  0.0000000000000E+00  0.0000000000000E+00
   282  2.8100000000000E+00  0.0000000000000E+00  0.0000000000000E+00
   283  2.8200000000000E+00  0.0000000000000E+00  0.0000000000000E+00
   284  2.8300000000000E+00  0.0000000000000E+00  0.0000000000000E+00
   285  2.8400000000000E+00  0.0000000000000E+00  0.0000000000000E+00
   286  2.8500000000000E+00  0.0000000000000E+00  0.0000000000000E+00
   287  2.8600000000000E+00  0.0000000000000E+00  0.0000000000000E+00
   288  2.8700000000000E+00  0.0000000000000E+00  0.0000000000000E+00
   289  2.8800000000000E+00  0.0000000000000E+00  0.0000000000000E+00
   290  2.8900000000000E+00  0.0000000000000E+00  0.0000000000000E+00
   291  2.9000000000000E+00  0.0000000000000E+00  0.0000000000000E+00
   292  2.9100000000000E+00  0.0000000000000E+00  0.0000000000000E+00
   293  2.9200000000000E+00  0.0000000000000E+00  0.0000000000000E+00
   294  2.9300000000000E+00  0.0000000000000E+00  0.0000000000000E+00
   295  2.9400000000000E+00  0.0000000000000E+00  0.0000000000000E+00
   296  2.9500000000000E+00  0.0000000000000E+00  0.0000000000000E+00
   297  2.9600000000000E+00  0.0000000000000E+00  0.0000000000000E+00
   298  2.9700000000000E+00  0.0000000000000E+00  0.0000000000000E+00
   299  2.9800000000000E+00  0.0000000000000E+00  0.0000000000000E+00
   300  2.9900000000000E+00  0.0000000000000E+00  0.0000000000000E+00
   301  3.0000000000000E+00  0.0000000000000E+00  0.0000000000000E+00
   302  3.0100000000000E+00  0.0000000000000E+00  0.0000000000000E+00
   303  3.0200000000000E+00  0.0000000000000E+00  0.0000000000000E+00
   304  3.0300000000000E+00  0.0000000000000E+00  0.0000000000000E+00
   305  3.0400000000000E+00  0.0000000000000E+00  0.0000000000000E+00
   306  3.0500000000000E+00  0.0000000000000E+00  0.0000000000000E+00
   307  3.0600000000000E+00  0.0000000000000E+00  0.0000000000000E+00
   308  3.0700000000000E+00  0.0000000000000E+00  0.0000000000000E+00
   309  3.0800000000000E+00  0.0000000000000E+00  0.0000000000000E+00
   310  3.0900000000000E+00  0.0000000000000E+00  0.0000000000000E+00
   311  3.1000000000000E+00  0.0000000000000E+00  0.0000000000000E+00
   312  3.1100000000000E+00  0.0000000000000E+00  0.0000000000000E+00
   313  3.1200000000000E+00  0.0000000000000E+00  0.0000000000000E+00
   314  3.1300000000000E+00  0.0000000000000E+00  0.0000000000000E+00
   315  3.1400000000000E+00  0.0000000000000E+00  0.0000000000000E+00
   316  3.1500000000000E+00  0.0000000000000E+00  0.0000000000000E+00
   317  3.1600000000000E+00  0.0000000000000E+00  0.0000000000000E+00
   318  3.1700000000000E+00  0.0000000000000E+00  0.0000000000000E+00
   319  3.1800000000000E+00  0.0000000000000E+00  0.0000000000000E+00
   320  3.1900000000000E+00  0.0000000000000E+00  0.0000000000000E+00
   321  3.2000000000000E+00  0.0000000000000E+00  0.0000000000000E+00
   322  3.2100000000000E+00  0.0000000000000E+00  0.0000000000000E+00
   323  3.2200000000000E+00  0.0000000000000E+00  0.0000000000000E+00
   324  3.2300000000000E+00  0.0000000000000E+00  0.0000000000000E+00
   325  3.2400000000000E+00  0.0000000000000E+00  0.0000000000000E+00
   326  3.2500000000000E+00  0.0000000000000E+00  0.0000000000000E+00
   327  3.2600000000000E+00  0.0000000000000E+00  0.0000000000000E+00
   328  3.2700000000000E+00  0.0000000000000E+00  0.0000000000000E+00
   329  3.2800000000000E+00  0.0000000000000E+00  0.0000000000000E+00
   330  3.2900000000000E+00  0.0000000000000E+00  0.0000000000000E+00
   331  3.3000000000000E+00  0.0000000000000E+00  0.0000000000000E+00
   332  3.3100000000000E+00  0.0000000000000E+00  0.0000000000000E+00
   333  3.3200000000000E+00  0.0000000000000E+00  0.0000000000000E+00
   334  3.3300000000000E+00  0.0000000000000E+00  0.0000000000000E+00
   335  3.3400000000000E+00  0.0000000000000E+00  0.0000000000000E+00
   336  3.3500000000000E+00  0.0000000000000E+00  0.0000000000000E+00
   337  3.3600000000000E+00  0.0000000000000E+00  0.0000000000000E+00
   338  3.3700000000000E+00  0.0000000000000E+00  0.0000000000000E+00
   339  3.3800000000000E+00  0.0000000000000E+00  0.0000000000000E+00
   340  3.3900000000000E+00  0.0000000000000E+00  0.0000000000000E+00
   341  3.4000000000000E+00  0.0000000000000E+00  0.0000000000000E+00
   342  3.4100000000000E+00  0.0000000000000E+00  0.0000000000000E+00
   343  3.4200000000000E+00  0.0000000000000E+00  0.0000000000000E+00
   344  3.4300000000000E+00  0.0000000000000E+00  0.0000000000000E+00
   345  3.4400000000000E+00  0.0000000000000E+00  0.0000000000000E+00
   346  3.4500000000000E+00  0.0000000000000E+00  0.0000000000000E+00
   347  3.4600000000000E+00  0.0000000000000E+00  0.0000000000000E+00
   348  3.4700000000000E+00  0.0000000000000E+00  0.0000000000000E+00
   349  3.4800000000000E+00  0.0000000000000E+00  0.0000000000000E+00
   350  3.4900000000000E+00  0.0000000000000E+00  0.0000000000000E+00
   351  3.5000000000000E+00  0.0000000000000E+00  0.0000000000000E+00
   352  3.5100000000000E+00  0.0000000000000E+00  0.0000000000000E+00
   353  3.5200000000000E+00  0.0000000000000E+00  0.0000000000000E+00
   354  3.5300000000000E+00  0.0000000000000E+00  0.0000000000000E+00
   355  3.5400000000000E+00  0.0000000000000E+00  0.0000000000000E+00
   356  3.5500000000000E+00  0.0000000000000E+00  0.0000000000000E+00
   357  3.5600000000000E+00  0.0000000000000E+00  0.0000000000000E+00
   358  3.5700000000000E+00  0.0000000000000E+00  0.0000000000000E+00
   359  3.5800000000000E+00  0.0000000000000E+00  0.0000000000000E+00
   360  3.5900000000000E+00  0.0000000000000E+00  0.0000000000000E+00
   361  3.6000000000000E+00  0.0000000000000E+00  0.0000000000000E+00
   362  3.6100000000000E+00  0.0000000000000E+00  0.0000000000000E+00
   363  3.6200000000000E+00  0.0000000000000E+00  0.0000000000000E+00
   364  3.6300000000000E+00  0.0000000000000E+00  0.0000000000000E+00
   365  3.6400000000000E+00  0.0000000000000E+00  0.0000000000000E+00
   366  3.6500000000000E+00  0.0000000000000E+00  0.0000000000000E+00
   367  3.6600000000000E+00  0.0000000000000E+00  0.0000000000000E+00
   368  3.6700000000000E+00  0.0000000000000E+00  0.0000000000000E+00
   369  3.6800000000000E+00  0.0000000000000E+00  0.0000000000000E+00
   370  3.6900000000000E+00  0.0000000000000E+00  0.0000000000000E+00
   371  3.7000000000000E+00  0.0000000000000E+00  0.0000000000000E+00
   372  3.7100000000000E+00  0.0000000000000E+00  0.0000000000000E+00
   373  3.7200000000000E+00  0.0000000000000E+00  0.0000000000000E+00
   374  3.7300000000000E+00  0.0000000000000E+00  0.0000000000000E+00
   375  3.7400000000000E+00  0.0000000000000E+00  0.0000000000000E+00
   376  3.7500000000000E+00  0.0000000000000E+00  0.0000000000000E+00
   377  3.7600000000000E+00  0.0000000000000E+00  0.0000000000000E+00
   378  3.7700000000000E+00  0.0000000000000E+00  0.0000000000000E+00
   379  3.7800000000000E+00  0.0000000000000E+00  0.0000000000000E+00
   380  3.7900000000000E+00  0.0000000000000E+00  0.0000000000000E+00
   381  3.8000000000000E+00  0.0000000000000E+00  0.0000000000000E+00
   382  3.8100000000000E+00  0.0000000000000E+00  0.0000000000000E+00
   383  3.8200000000000E+00  0.0000000000000E+00  0.0000000000000E+00
   384  3.8300000000000E+00  0.0000000000000E+00  0.0000000000000E+00
   385  3.8400000000000E+00  0.0000000000000E+00  0.0000000000000E+00
   386  3.8500000000000E+00  0.0000000000000E+00  0.0000000000000E+00
   387  3.8600000000000E+00  0.0000000000000E+00  0.0000000000000E+00
   388  3.8700000000000E+00  0.0000000000000E+00  0.0000000000000E+00
   389  3.8800000000000E+00  0.0000000000000E+00  0.0000000000000E+00
   390  3.8900000000000E+00  0.0000000000000E+00  0.0000000000000E+00
   391  3.9000000000000E+00  0.0000000000000E+00  0.0000000000000E+00
   392  3.9100000000000E+00  0.0000000000000E+00  0.0000000000000E+00
   393  3.9200000000000E+00  0.0000000000000E+00  0.0000000000000E+00
   394  3.9300000000000E+00  0.0000000000000E+00  0.0000000000000E+00
   395  3.9400000000000E+00  0.0000000000000E+00  0.0000000000000E+00
   396  3.9500000000000E+00  0.0000000000000E+00  0.0000000000000E+00
   397  3.9600000000000E+00  0.0000000000000E+00  0.0000000000000E+00
   398  3.9700000000000E+00  0.0000000000000E+00  0.0000000000000E+00
   399  3.9800000000000E+00  0.0000000000000E+00  0.0000000000000E+00
   400  3.9900000000000E+00  0.0000000000000E+00  0.0000000000000E+00
   401  4.0000000000000E+00  0.0000000000000E+00  0.0000000000000E+00
   402  4.0100000000000E+00  0.0000000000000E+00  0.0000000000000E+00
   403  4.0200000000000E+00  0.0000000000000E+00  0.0000000000000E+00
   404  4.0300000000000E+00  0.0000000000000E+00  0.0000000000000E+00
   405  4.0400000000000E+00  0.0000000000000E+00  0.0000000000000E+00
   406  4.0500000000000E+00  0.0000000000000E+00  0.0000000000000E+00
   407  4.0600000000000E+00  0.0000000000000E+00  0.0000000000000E+00
   408  4.0700000000000E+00  0.0000000000000E+00  0.0000000000000E+00
   409  4.0800000000000E+00  0.0000000000000E+00  0.0000000000000E+00
   410  4.0900000000000E+00  0.0000000000000E+00  0.0000000000000E+00
   411  4.1000000000000E+00  0.0000000000000E+00  0.0000000000000E+00
   412  4.1100000000000E+00  0.0000000000000E+00  0.0000000000000E+00
   413  4.1200000000000E+00  0.0000000000000E+00  0.0000000000000E+00
   414  4.1300000000000E+00  0.0000000000000E+00  0.0000000000000E+00
   415  4.1400000000000E+00  0.0000000000000E+00  0.0000000000000E+00
   416  4.1500000000000E+00  0.0000000000000E+00  0.0000000000000E+00
   417  4.1600000000000E+00  0.0000000000000E+00  0.0000000000000E+00
   418  4.1700000000000E+00  0.0000000000000E+00  0.0000000000000E+00
   419  4.1800000000000E+00  0.0000000000000E+00  0.0000000000000E+00
   420  4.1900000000000E+00  0.0000000000000E+00  0.0000000000000E+00
   421  4.2000000000000E+00  0.0000000000000E+00  0.0000000000000E+00
   422  4.2100000000000E+00  0.0000000000000E+00  0.0000000000000E+00