O     ONCVPSP-3.3.1  r_core=   1.60139   1.60139
      8.0000      6.0000      201113    zatom,zion,pspd
     8       2   1     4   400     0    pspcod,pspxc,lmax,lloc,mmax,r2well
  3.99000000  4.00000000  0.00000000    rchrg fchrg qchrg
     2     2     0     0     0    nproj
     1     1           extension_switch
   0                         2.1505460404507E+00 -3.1662022482316E-01
     1  0.0000000000000E+00 -7.6113559899227E-12 -6.0934035595039E-11
     2  1.0000000000000E-02  6.9647256970867E-02 -5.0326284095650E-02
     3  2.0000000000000E-02  1.3915072566907E-01 -1.0044565686527E-01
     4  3.0000000000000E-02  2.0836698344788E-01 -1.5015182064424E-01
     5  4.0000000000000E-02  2.7715333794318E-01 -1.9923970471093E-01
     6  5.0000000000000E-02  3.4536818979334E-01 -2.4750607779283E-01
     7  6.0000000000000E-02  4.1287139245881E-01 -2.9475015937038E-01
     8  7.0000000000000E-02  4.7952460818345E-01 -3.4077422930526E-01
     9  8.0000000000000E-02  5.4519165914722E-01 -3.8538423525882E-01
    10  9.0000000000000E-02  6.0973887286967E-01 -4.2839039729171E-01
    11  1.0000000000000E-01  6.7303542093486E-01 -4.6960780894790E-01
    12  1.1000000000000E-01  7.3495365012208E-01 -5.0885703402731E-01
    13  1.2000000000000E-01  7.9536940504222E-01 -5.4596469814113E-01
    14  1.3000000000000E-01  8.5416234139705E-01 -5.8076407402535E-01
    15  1.4000000000000E-01  9.1121622899862E-01 -6.1309565946166E-01
    16  1.5000000000000E-01  9.6641924370733E-01 -6.4280774652299E-01
    17  1.6000000000000E-01  1.0196642474715E+00 -6.6975698072499E-01
    18  1.7000000000000E-01  1.0708490556768E+00 -6.9380890852683E-01
    19  1.8000000000000E-01  1.1198766910430E+00 -7.1483851148636E-01
    20  1.9000000000000E-01  1.1666556233344E+00 -7.3273072523866E-01
    21  2.0000000000000E-01  1.2110999941848E+00 -7.4738094133514E-01
    22  2.1000000000000E-01  1.2531298263714E+00 -7.5869548985314E-01
    23  2.2000000000000E-01  1.2926712169092E+00 -7.6659210056915E-01
    24  2.3000000000000E-01  1.3296565133784E+00 -7.7100034037988E-01
    25  2.4000000000000E-01  1.3640244729356E+00 -7.7186202455999E-01
    26  2.5000000000000E-01  1.3957204035080E+00 -7.6913159936367E-01
    27  2.6000000000000E-01  1.4246962867108E+00 -7.6277649341107E-01
    28  2.7000000000000E-01  1.4509108820804E+00 -7.5277743525296E-01
    29  2.8000000000000E-01  1.4743298122623E+00 -7.3912873447783E-01
    30  2.9000000000000E-01  1.4949256288485E+00 -7.2183852371778E-01
    31  3.0000000000000E-01  1.5126778586103E+00 -7.0092895892401E-01
    32  3.1000000000000E-01  1.5275730299286E+00 -6.7643637531943E-01
    33  3.2000000000000E-01  1.5396046792843E+00 -6.4841139649883E-01
    34  3.3000000000000E-01  1.5487733377256E+00 -6.1691899423272E-01
    35  3.4000000000000E-01  1.5550864972941E+00 -5.8203849664434E-01
    36  3.5000000000000E-01  1.5585585574502E+00 -5.4386354256734E-01
    37  3.6000000000000E-01  1.5592107516038E+00 -5.0250198005644E-01
    38  3.7000000000000E-01  1.5570710539169E+00 -4.5807570721391E-01
    39  3.8000000000000E-01  1.5521740666126E+00 -4.1072045371101E-01
    40  3.9000000000000E-01  1.5445608880868E+00 -3.6058550162455E-01
    41  4.0000000000000E-01  1.5342789621876E+00 -3.0783334447471E-01
    42  4.1000000000000E-01  1.5213819090871E+00 -2.5263928363786E-01
    43  4.2000000000000E-01  1.5059293382421E+00 -1.9519096161961E-01
    44  4.3000000000000E-01  1.4879866439984E+00 -1.3568783200248E-01
    45  4.4000000000000E-01  1.4676247844602E+00 -7.4340566232321E-02
    46  4.5000000000000E-01  1.4449200443076E+00 -1.1370397772333E-02
    47  4.6000000000000E-01  1.4199537823066E+00  5.2991595467110E-02
    48  4.7000000000000E-01  1.3928121643136E+00  1.1850526912351E-01
    49  4.8000000000000E-01  1.3635858826366E+00  1.8492224910305E-01
    50  4.9000000000000E-01  1.3323698626668E+00  2.5198682492141E-01
    51  5.0000000000000E-01  1.2992629577498E+00  3.1943689714873E-01
    52  5.1000000000000E-01  1.2643676333121E+00  3.8700497603358E-01
    53  5.2000000000000E-01  1.2277896413080E+00  4.5441922797176E-01
    54  5.3000000000000E-01  1.1896376860905E+00  5.2140456608571E-01
    55  5.4000000000000E-01  1.1500230828533E+00  5.8768378078662E-01
    56  5.5000000000000E-01  1.1090594098215E+00  6.5297870581207E-01
    57  5.6000000000000E-01  1.0668621554029E+00  7.1701141486777E-01
    58  5.7000000000000E-01  1.0235483615341E+00  7.7950544365647E-01
    59  5.8000000000000E-01  9.7923626447987E-01  8.4018703175404E-01
    60  5.9000000000000E-01  9.3404493435830E-01  8.9878637849592E-01
    61  6.0000000000000E-01  8.8809391467589E-01  9.5503890676636E-01
    62  6.1000000000000E-01  8.4150286316240E-01  1.0086865283465E+00
    63  6.2000000000000E-01  7.9439119519515E-01  1.0594789042718E+00
    64  6.3000000000000E-01  7.4687773109699E-01  1.1071746934820E+00
    65  6.4000000000000E-01  6.9908034858105E-01  1.1515427829194E+00
    66  6.5000000000000E-01  6.5111564159825E-01  1.1923634921406E+00
    67  6.6000000000000E-01  6.0309858682101E-01  1.2294297454645E+00
    68  6.7000000000000E-01  5.5514221896816E-01  1.2625482046768E+00
    69  6.8000000000000E-01  5.0735731614159E-01  1.2915403553551E+00
    70  6.9000000000000E-01  4.5985209630581E-01  1.3162435399724E+00
    71  7.0000000000000E-01  4.1273192599581E-01  1.3365119310727E+00
    72  7.1000000000000E-01  3.6609904228830E-01  1.3522174379977E+00
    73  7.2000000000000E-01  3.2005228901501E-01  1.3632505408780E+00
    74  7.3000000000000E-01  2.7468686813626E-01  1.3695210458803E+00
    75  7.4000000000000E-01  2.3009410712669E-01  1.3709587560282E+00
    76  7.5000000000000E-01  1.8636124315571E-01  1.3675140522836E+00
    77  7.6000000000000E-01  1.4357122476992E-01  1.3591583799903E+00
    78  7.7000000000000E-01  1.0180253170709E-01  1.3458846362356E+00
    79  7.8000000000000E-01  6.1129013389440E-02  1.3277074541800E+00
    80  7.9000000000000E-01  2.1619746559153E-02  1.3046633809358E+00
    81  8.0000000000000E-01 -1.6661087568488E-02  1.2768109461378E+00
    82  8.1000000000000E-01 -5.3654306348526E-02  1.2442306189466E+00
    83  8.2000000000000E-01 -8.9305808752105E-02  1.2070246518440E+00
    84  8.3000000000000E-01 -1.2356663831309E-01  1.1653168102246E+00
    85  8.4000000000000E-01 -1.5639302596771E-01  1.1192519874501E+00
    86  8.5000000000000E-01 -1.8774641287309E-01  1.0689957057136E+00
    87  8.6000000000000E-01 -2.1759345338457E-01  1.0147335037438E+00
    88  8.7000000000000E-01 -2.4590599846418E-01  9.5667021307717E-01
    89  8.8000000000000E-01 -2.7266105988473E-01  8.9502912531615E-01
    90  8.9000000000000E-01 -2.9784075568375E-01  8.3005105348449E-01
    91  9.0000000000000E-01 -3.2143223740890E-01  7.6199329126838E-01
    92  9.1000000000000E-01 -3.4342759978169E-01  6.9112847460050E-01
    93  9.2000000000000E-01 -3.6382377348740E-01  6.1774335069012E-01
    94  9.3000000000000E-01 -3.8262240187714E-01  5.4213746022628E-01
    95  9.4000000000000E-01 -3.9982970244115E-01  4.6462173907522E-01
    96  9.5000000000000E-01 -4.1545631398130E-01  3.8551704635415E-01
    97  9.6000000000000E-01 -4.2951713047438E-01  3.0515262628618E-01
    98  9.7000000000000E-01 -4.4203112267558E-01  2.2386451172166E-01
    99  9.8000000000000E-01 -4.5302114856401E-01  1.4199387764567E-01
   100  9.9000000000000E-01 -4.6251375377809E-01  5.9885353375433E-02
   101  1.0000000000000E+00 -4.7053896322725E-01 -2.2114697523838E-02
   102  1.0100000000000E+00 -4.7713006510037E-01 -1.0365992029284E-01
   103  1.0200000000000E+00 -4.8232338851589E-01 -1.8440572548601E-01
   104  1.0300000000000E+00 -4.8615807607762E-01 -2.6401104926203E-01
   105  1.0400000000000E+00 -4.8867585261109E-01 -3.4214010769778E-01
   106  1.0500000000000E+00 -4.8992079135884E-01 -4.1846413535264E-01
   107  1.0600000000000E+00 -4.8993907891038E-01 -4.9266309834021E-01
   108  1.0700000000000E+00 -4.8877878013044E-01 -5.6442737229024E-01
   109  1.0800000000000E+00 -4.8648960433127E-01 -6.3345937575606E-01
   110  1.0900000000000E+00 -4.8312267390907E-01 -6.9947514986740E-01
   111  1.1000000000000E+00 -4.7873029662905E-01 -7.6220587536961E-01
   112  1.1100000000000E+00 -4.7336574271174E-01 -8.2139931849023E-01
   113  1.1200000000000E+00 -4.6708302781674E-01 -8.7682119760929E-01
   114  1.1300000000000E+00 -4.5993670297533E-01 -9.2825646313204E-01
   115  1.1400000000000E+00 -4.5198165245432E-01 -9.7551048361732E-01
   116  1.1500000000000E+00 -4.4327290048788E-01 -1.0184101316453E+00
   117  1.1600000000000E+00 -4.3386542772305E-01 -1.0568047637707E+00
   118  1.1700000000000E+00 -4.2381399816313E-01 -1.0905670894899E+00
   119  1.1800000000000E+00 -4.1317299730121E-01 -1.1195939250207E+00
   120  1.1900000000000E+00 -4.0199628208350E-01 -1.1438068281930E+00
   121  1.2000000000000E+00 -3.9033704321642E-01 -1.1631526119348E+00
   122  1.2100000000000E+00 -3.7824768025960E-01 -1.1776037345255E+00
   123  1.2200000000000E+00 -3.6577968987251E-01 -1.1871585654802E+00
   124  1.2300000000000E+00 -3.5298356747008E-01 -1.1918415270019E+00
   125  1.2400000000000E+00 -3.3990872244127E-01 -1.1917031118876E+00
   126  1.2500000000000E+00 -3.2660340701182E-01 -1.1868197794534E+00
   127  1.2600000000000E+00 -3.1311465874701E-01 -1.1772937318560E+00
   128  1.2700000000000E+00 -2.9948825654926E-01 -1.1632525744952E+00
   129  1.2800000000000E+00 -2.8576868995742E-01 -1.1448488646235E+00
   130  1.2900000000000E+00 -2.7199914148116E-01 -1.1222595529806E+00
   131  1.3000000000000E+00 -2.5822148154264E-01 -1.0956853247389E+00
   132  1.3100000000000E+00 -2.4447627558775E-01 -1.0653498461261E+00
   133  1.3200000000000E+00 -2.3080280284278E-01 -1.0314989238927E+00
   134  1.3300000000000E+00 -2.1723908604596E-01 -9.9439958606753E-01
   135  1.3400000000000E+00 -2.0382193151315E-01 -9.5433909217351E-01
   136  1.3500000000000E+00 -1.9058697877316E-01 -9.1162388218399E-01
   137  1.3600000000000E+00 -1.7756875979423E-01 -8.6657848471464E-01
   138  1.3700000000000E+00 -1.6480076124208E-01 -8.1954432423377E-01
   139  1.3800000000000E+00 -1.5231551139133E-01 -7.7087871822903E-01
   140  1.3900000000000E+00 -1.4014460826999E-01 -7.2095303294323E-01
   141  1.4000000000000E+00 -1.2831890703370E-01 -6.7015278313157E-01
   142  1.4100000000000E+00 -1.1686857661858E-01 -6.1887598155274E-01
   143  1.4200000000000E+00 -1.0582257458153E-01 -5.6752458612068E-01
   144  1.4300000000000E+00 -9.5208277550806E-02 -5.1649705415056E-01
   145  1.4400000000000E+00 -8.5051035016148E-02 -4.6617936300500E-01
   146  1.4500000000000E+00 -7.5374333468851E-02 -4.1694329835248E-01
   147  1.4600000000000E+00 -6.6200051625741E-02 -3.6914571761855E-01
   148  1.4700000000000E+00 -5.7548546002539E-02 -3.2312606779789E-01
   149  1.4800000000000E+00 -4.9438814305480E-02 -2.7920488002425E-01
   150  1.4900000000000E+00 -4.1888629055814E-02 -2.3768207622408E-01
   151  1.5000000000000E+00 -3.4914671875136E-02 -1.9883545341890E-01
   152  1.5100000000000E+00 -2.8532659660607E-02 -1.6291926073838E-01
   153  1.5200000000000E+00 -2.2757462675394E-02 -1.3016289471310E-01
   154  1.5300000000000E+00 -1.7603214100698E-02 -1.0076971705553E-01
   155  1.5400000000000E+00 -1.3083409920712E-02 -7.4916005866452E-02
   156  1.5500000000000E+00 -9.2129373469416E-03 -5.2761191026993E-02
   157  1.5600000000000E+00 -6.0002760949806E-03 -3.4401785306903E-02
   158  1.5700000000000E+00 -3.4441036811788E-03 -1.9846958393719E-02
   159  1.5800000000000E+00 -1.5925931386357E-03 -9.3760890752622E-03
   160  1.5900000000000E+00 -4.8837635006574E-04 -3.2219337579953E-03
   161  1.6000000000000E+00 -6.7494840879767E-06 -5.2422242725884E-04
   162  1.6100000000000E+00  7.6628209148047E-05  1.5537875430883E-04
   163  1.6200000000000E+00  4.7586313150792E-06  1.4220183988473E-05
   164  1.6300000000000E+00 -2.2377300794352E-05 -7.4445427537883E-05
   165  1.6400000000000E+00 -1.5562381312635E-07 -5.4571946550919E-07
   166  1.6500000000000E+00  4.1574433140418E-06  1.1993260234875E-05
   167  1.6600000000000E+00 -3.3535545773566E-09  5.0240652364319E-08
   168  1.6700000000000E+00 -6.4734721531801E-08  9.6981115570327E-07
   169  1.6800000000000E+00  0.0000000000000E+00  0.0000000000000E+00
   170  1.6900000000000E+00  0.0000000000000E+00  0.0000000000000E+00
   171  1.7000000000000E+00  0.0000000000000E+00  0.0000000000000E+00
   172  1.7100000000000E+00  0.0000000000000E+00  0.0000000000000E+00
   173  1.7200000000000E+00  0.0000000000000E+00  0.0000000000000E+00
   174  1.7300000000000E+00  0.0000000000000E+00  0.0000000000000E+00
   175  1.7400000000000E+00  0.0000000000000E+00  0.0000000000000E+00
   176  1.7500000000000E+00  0.0000000000000E+00  0.0000000000000E+00
   177  1.7600000000000E+00  0.0000000000000E+00  0.0000000000000E+00
   178  1.7700000000000E+00  0.0000000000000E+00  0.0000000000000E+00
   179  1.7800000000000E+00  0.0000000000000E+00  0.0000000000000E+00
   180  1.7900000000000E+00  0.0000000000000E+00  0.0000000000000E+00
   181  1.8000000000000E+00  0.0000000000000E+00  0.0000000000000E+00
   182  1.8100000000000E+00  0.0000000000000E+00  0.0000000000000E+00
   183  1.8200000000000E+00  0.0000000000000E+00  0.0000000000000E+00
   184  1.8300000000000E+00  0.0000000000000E+00  0.0000000000000E+00
   185  1.8400000000000E+00  0.0000000000000E+00  0.0000000000000E+00
   186  1.8500000000000E+00  0.0000000000000E+00  0.0000000000000E+00
   187  1.8600000000000E+00  0.0000000000000E+00  0.0000000000000E+00
   188  1.8700000000000E+00  0.0000000000000E+00  0.0000000000000E+00
   189  1.8800000000000E+00  0.0000000000000E+00  0.0000000000000E+00
   190  1.8900000000000E+00  0.0000000000000E+00  0.0000000000000E+00
   191  1.9000000000000E+00  0.0000000000000E+00  0.0000000000000E+00
   192  1.9100000000000E+00  0.0000000000000E+00  0.0000000000000E+00
   193  1.9200000000000E+00  0.0000000000000E+00  0.0000000000000E+00
   194  1.9300000000000E+00  0.0000000000000E+00  0.0000000000000E+00
   195  1.9400000000000E+00  0.0000000000000E+00  0.0000000000000E+00
   196  1.9500000000000E+00  0.0000000000000E+00  0.0000000000000E+00
   197  1.9600000000000E+00  0.0000000000000E+00  0.0000000000000E+00
   198  1.9700000000000E+00  0.0000000000000E+00  0.0000000000000E+00
   199  1.9800000000000E+00  0.0000000000000E+00  0.0000000000000E+00
   200  1.9900000000000E+00  0.0000000000000E+00  0.0000000000000E+00
   201  2.0000000000000E+00  0.0000000000000E+00  0.0000000000000E+00
   202  2.0100000000000E+00  0.0000000000000E+00  0.0000000000000E+00
   203  2.0200000000000E+00  0.0000000000000E+00  0.0000000000000E+00
   204  2.0300000000000E+00  0.0000000000000E+00  0.0000000000000E+00
   205  2.0400000000000E+00  0.0000000000000E+00  0.0000000000000E+00
   206  2.0500000000000E+00  0.0000000000000E+00  0.0000000000000E+00
   207  2.0600000000000E+00  0.0000000000000E+00  0.0000000000000E+00
   208  2.0700000000000E+00  0.0000000000000E+00  0.0000000000000E+00
   209  2.0800000000000E+00  0.0000000000000E+00  0.0000000000000E+00
   210  2.0900000000000E+00  0.0000000000000E+00  0.0000000000000E+00
   211  2.1000000000000E+00  0.0000000000000E+00  0.0000000000000E+00
   212  2.1100000000000E+00  0.0000000000000E+00  0.0000000000000E+00
   213  2.1200000000000E+00  0.0000000000000E+00  0.0000000000000E+00
   214  2.1300000000000E+00  0.0000000000000E+00  0.0000000000000E+00
   215  2.1400000000000E+00  0.0000000000000E+00  0.0000000000000E+00
   216  2.1500000000000E+00  0.0000000000000E+00  0.0000000000000E+00
   217  2.1600000000000E+00  0.0000000000000E+00  0.0000000000000E+00
   218  2.1700000000000E+00  0.0000000000000E+00  0.0000000000000E+00
   219  2.1800000000000E+00  0.0000000000000E+00  0.0000000000000E+00
   220  2.1900000000000E+00  0.0000000000000E+00  0.0000000000000E+00
   221  2.2000000000000E+00  0.0000000000000E+00  0.0000000000000E+00
   222  2.2100000000000E+00  0.0000000000000E+00  0.0000000000000E+00
   223  2.2200000000000E+00  0.0000000000000E+00  0.0000000000000E+00
   224  2.2300000000000E+00  0.0000000000000E+00  0.0000000000000E+00
   225  2.2400000000000E+00  0.0000000000000E+00  0.0000000000000E+00
   226  2.2500000000000E+00  0.0000000000000E+00  0.0000000000000E+00
   227  2.2600000000000E+00  0.0000000000000E+00  0.0000000000000E+00
   228  2.2700000000000E+00  0.0000000000000E+00  0.0000000000000E+00
   229  2.2800000000000E+00  0.0000000000000E+00  0.0000000000000E+00
   230  2.2900000000000E+00  0.0000000000000E+00  0.0000000000000E+00
   231  2.3000000000000E+00  0.0000000000000E+00  0.0000000000000E+00
   232  2.3100000000000E+00  0.0000000000000E+00  0.0000000000000E+00
   233  2.3200000000000E+00  0.0000000000000E+00  0.0000000000000E+00
   234  2.3300000000000E+00  0.0000000000000E+00  0.0000000000000E+00
   235  2.3400000000000E+00  0.0000000000000E+00  0.0000000000000E+00
   236  2.3500000000000E+00  0.0000000000000E+00  0.0000000000000E+00
   237  2.3600000000000E+00  0.0000000000000E+00  0.0000000000000E+00
   238  2.3700000000000E+00  0.0000000000000E+00  0.0000000000000E+00
   239  2.3800000000000E+00  0.0000000000000E+00  0.0000000000000E+00
   240  2.3900000000000E+00  0.0000000000000E+00  0.0000000000000E+00
   241  2.4000000000000E+00  0.0000000000000E+00  0.0000000000000E+00
   242  2.4100000000000E+00  0.0000000000000E+00  0.0000000000000E+00
   243  2.4200000000000E+00  0.0000000000000E+00  0.0000000000000E+00
   244  2.4300000000000E+00  0.0000000000000E+00  0.0000000000000E+00
   245  2.4400000000000E+00  0.0000000000000E+00  0.0000000000000E+00
   246  2.4500000000000E+00  0.0000000000000E+00  0.0000000000000E+00
   247  2.4600000000000E+00  0.0000000000000E+00  0.0000000000000E+00
   248  2.4700000000000E+00  0.0000000000000E+00  0.0000000000000E+00
   249  2.4800000000000E+00  0.0000000000000E+00  0.0000000000000E+00
   250  2.4900000000000E+00  0.0000000000000E+00  0.0000000000000E+00
   251  2.5000000000000E+00  0.0000000000000E+00  0.0000000000000E+00
   252  2.5100000000000E+00  0.0000000000000E+00  0.0000000000000E+00
   253  2.5200000000000E+00  0.0000000000000E+00  0.0000000000000E+00
   254  2.5300000000000E+00  0.0000000000000E+00  0.0000000000000E+00
   255  2.5400000000000E+00  0.0000000000000E+00  0.0000000000000E+00
   256  2.5500000000000E+00  0.0000000000000E+00  0.0000000000000E+00
   257  2.5600000000000E+00  0.0000000000000E+00  0.0000000000000E+00
   258  2.5700000000000E+00  0.0000000000000E+00  0.0000000000000E+00
   259  2.5800000000000E+00  0.0000000000000E+00  0.0000000000000E+00
   260  2.5900000000000E+00  0.0000000000000E+00  0.0000000000000E+00
   261  2.6000000000000E+00  0.0000000000000E+00  0.0000000000000E+00
   262  2.6100000000000E+00  0.0000000000000E+00  0.0000000000000E+00
   263  2.6200000000000E+00  0.0000000000000E+00  0.0000000000000E+00
   264  2.6300000000000E+00  0.0000000000000E+00  0.0000000000000E+00
   265  2.6400000000000E+00  0.0000000000000E+00  0.0000000000000E+00
   266  2.6500000000000E+00  0.0000000000000E+00  0.0000000000000E+00
   267  2.6600000000000E+00  0.0000000000000E+00  0.0000000000000E+00
   268  2.6700000000000E+00  0.0000000000000E+00  0.0000000000000E+00
   269  2.6800000000000E+00  0.0000000000000E+00  0.0000000000000E+00
   270  2.6900000000000E+00  0.0000000000000E+00  0.0000000000000E+00
   271  2.7000000000000E+00  0.0000000000000E+00  0.0000000000000E+00
   272  2.7100000000000E+00  0.0000000000000E+00  0.0000000000000E+00
   273  2.7200000000000E+00  0.0000000000000E+00  0.0000000000000E+00
   274  2.7300000000000E+00  0.0000000000000E+00  0.0000000000000E+00
   275  2.7400000000000E+00  0.0000000000000E+00  0.0000000000000E+00
   276  2.7500000000000E+00  0.0000000000000E+00  0.0000000000000E+00
   277  2.7600000000000E+00  0.0000000000000E+00  0.0000000000000E+00
   278  2.7700000000000E+00  0.0000000000000E+00  0.0000000000000E+00
   279  2.7800000000000E+00  0.0000000000000E+00  0.0000000000000E+00
   280  2.7900000000000E+00  0.0000000000000E+00  0.0000000000000E+00
   281  2.8000000000000E+00  0.0000000000000E+00  0.0000000000000E+00
   282  2.8100000000000E+00  0.0000000000000E+00  0.0000000000000E+00
   283  2.8200000000000E+00  0.0000000000000E+00  0.0000000000000E+00
   284  2.8300000000000E+00  0.0000000000000E+00  0.0000000000000E+00
   285  2.8400000000000E+00  0.0000000000000E+00  0.0000000000000E+00
   286  2.8500000000000E+00  0.0000000000000E+00  0.0000000000000E+00
   287  2.8600000000000E+00  0.0000000000000E+00  0.0000000000000E+00
   288  2.8700000000000E+00  0.0000000000000E+00  0.0000000000000E+00
   289  2.8800000000000E+00  0.0000000000000E+00  0.0000000000000E+00
   290  2.8900000000000E+00  0.0000000000000E+00  0.0000000000000E+00
   291  2.9000000000000E+00  0.0000000000000E+00  0.0000000000000E+00
   292  2.9100000000000E+00  0.0000000000000E+00  0.0000000000000E+00
   293  2.9200000000000E+00  0.0000000000000E+00  0.0000000000000E+00
   294  2.9300000000000E+00  0.0000000000000E+00  0.0000000000000E+00
   295  2.9400000000000E+00  0.0000000000000E+00  0.0000000000000E+00
   296  2.9500000000000E+00  0.0000000000000E+00  0.0000000000000E+00
   297  2.9600000000000E+00  0.0000000000000E+00  0.0000000000000E+00
   298  2.9700000000000E+00  0.0000000000000E+00  0.0000000000000E+00
   299  2.9800000000000E+00  0.0000000000000E+00  0.0000000000000E+00
   300  2.9900000000000E+00  0.0000000000000E+00  0.0000000000000E+00
   301  3.0000000000000E+00  0.0000000000000E+00  0.0000000000000E+00
   302  3.0100000000000E+00  0.0000000000000E+00  0.0000000000000E+00
   303  3.0200000000000E+00  0.0000000000000E+00  0.0000000000000E+00
   304  3.0300000000000E+00  0.0000000000000E+00  0.0000000000000E+00
   305  3.0400000000000E+00  0.0000000000000E+00  0.0000000000000E+00
   306  3.0500000000000E+00  0.0000000000000E+00  0.0000000000000E+00
   307  3.0600000000000E+00  0.0000000000000E+00  0.0000000000000E+00
   308  3.0700000000000E+00  0.0000000000000E+00  0.0000000000000E+00
   309  3.0800000000000E+00  0.0000000000000E+00  0.0000000000000E+00
   310  3.0900000000000E+00  0.0000000000000E+00  0.0000000000000E+00
   311  3.1000000000000E+00  0.0000000000000E+00  0.0000000000000E+00
   312  3.1100000000000E+00  0.0000000000000E+00  0.0000000000000E+00
   313  3.1200000000000E+00  0.0000000000000E+00  0.0000000000000E+00
   314  3.1300000000000E+00  0.0000000000000E+00  0.0000000000000E+00
   315  3.1400000000000E+00  0.0000000000000E+00  0.0000000000000E+00
   316  3.1500000000000E+00  0.0000000000000E+00  0.0000000000000E+00
   317  3.1600000000000E+00  0.0000000000000E+00  0.0000000000000E+00
   318  3.1700000000000E+00  0.0000000000000E+00  0.0000000000000E+00
   319  3.1800000000000E+00  0.0000000000000E+00  0.0000000000000E+00
   320  3.1900000000000E+00  0.0000000000000E+00  0.0000000000000E+00
   321  3.2000000000000E+00  0.0000000000000E+00  0.0000000000000E+00
   322  3.2100000000000E+00  0.0000000000000E+00  0.0000000000000E+00
   323  3.2200000000000E+00  0.0000000000000E+00  0.0000000000000E+00
   324  3.2300000000000E+00  0.0000000000000E+00  0.0000000000000E+00
   325  3.2400000000000E+00  0.0000000000000E+00  0.0000000000000E+00
   326  3.2500000000000E+00  0.0000000000000E+00  0.0000000000000E+00
   327  3.2600000000000E+00  0.0000000000000E+00  0.0000000000000E+00
   328  3.2700000000000E+00  0.0000000000000E+00  0.0000000000000E+00
   329  3.2800000000000E+00  0.0000000000000E+00  0.0000000000000E+00
   330  3.2900000000000E+00  0.0000000000000E+00  0.0000000000000E+00
   331  3.3000000000000E+00  0.0000000000000E+00  0.0000000000000E+00
   332  3.3100000000000E+00  0.0000000000000E+00  0.0000000000000E+00
   333  3.3200000000000E+00  0.0000000000000E+00  0.0000000000000E+00
   334  3.3300000000000E+00  0.0000000000000E+00  0.0000000000000E+00
   335  3.3400000000000E+00  0.0000000000000E+00  0.0000000000000E+00
   336  3.3500000000000E+00  0.0000000000000E+00  0.0000000000000E+00
   337  3.3600000000000E+00  0.0000000000000E+00  0.0000000000000E+00
   338  3.3700000000000E+00  0.0000000000000E+00  0.0000000000000E+00
   339  3.3800000000000E+00  0.0000000000000E+00  0.0000000000000E+00
   340  3.3900000000000E+00  0.0000000000000E+00  0.0000000000000E+00
   341  3.4000000000000E+00  0.0000000000000E+00  0.0000000000000E+00
   342  3.4100000000000E+00  0.0000000000000E+00  0.0000000000000E+00
   343  3.4200000000000E+00  0.0000000000000E+00  0.0000000000000E+00
   344  3.4300000000000E+00  0.0000000000000E+00  0.0000000000000E+00
   345  3.4400000000000E+00  0.0000000000000E+00  0.0000000000000E+00
   346  3.4500000000000E+00  0.0000000000000E+00  0.0000000000000E+00
   347  3.4600000000000E+00  0.0000000000000E+00  0.0000000000000E+00
   348  3.4700000000000E+00  0.0000000000000E+00  0.0000000000000E+00
   349  3.4800000000000E+00  0.0000000000000E+00  0.0000000000000E+00
   350  3.4900000000000E+00  0.0000000000000E+00  0.0000000000000E+00
   351  3.5000000000000E+00  0.0000000000000E+00  0.0000000000000E+00
   352  3.5100000000000E+00  0.0000000000000E+00  0.0000000000000E+00
   353  3.5200000000000E+00  0.0000000000000E+00  0.0000000000000E+00
   354  3.5300000000000E+00  0.0000000000000E+00  0.0000000000000E+00
   355  3.5400000000000E+00  0.0000000000000E+00  0.0000000000000E+00
   356  3.5500000000000E+00  0.0000000000000E+00  0.0000000000000E+00
   357  3.5600000000000E+00  0.0000000000000E+00  0.0000000000000E+00
   358  3.5700000000000E+00  0.0000000000000E+00  0.0000000000000E+00
   359  3.5800000000000E+00  0.0000000000000E+00  0.0000000000000E+00
   360  3.5900000000000E+00  0.0000000000000E+00  0.0000000000000E+00
   361  3.6000000000000E+00  0.0000000000000E+00  0.0000000000000E+00
   362  3.6100000000000E+00  0.0000000000000E+00  0.0000000000000E+00
   363  3.6200000000000E+00  0.0000000000000E+00  0.0000000000000E+00
   364  3.6300000000000E+00  0.0000000000000E+00  0.0000000000000E+00
   365  3.6400000000000E+00  0.0000000000000E+00  0.0000000000000E+00
   366  3.6500000000000E+00  0.0000000000000E+00  0.0000000000000E+00
   367  3.6600000000000E+00  0.0000000000000E+00  0.0000000000000E+00
   368  3.6700000000000E+00  0.0000000000000E+00  0.0000000000000E+00
   369  3.6800000000000E+00  0.0000000000000E+00  0.0000000000000E+00
   370  3.6900000000000E+00  0.0000000000000E+00  0.0000000000000E+00
   371  3.7000000000000E+00  0.0000000000000E+00  0.0000000000000E+00
   372  3.7100000000000E+00  0.0000000000000E+00  0.0000000000000E+00
   373  3.7200000000000E+00  0.0000000000000E+00  0.0000000000000E+00
   374  3.7300000000000E+00  0.0000000000000E+00  0.0000000000000E+00
   375  3.7400000000000E+00  0.0000000000000E+00  0.0000000000000E+00
   376  3.7500000000000E+00  0.0000000000000E+00  0.0000000000000E+00
   377  3.7600000000000E+00  0.0000000000000E+00  0.0000000000000E+00
   378  3.7700000000000E+00  0.0000000000000E+00  0.0000000000000E+00
   379  3.7800000000000E+00  0.0000000000000E+00  0.0000000000000E+00
   380  3.7900000000000E+00  0.0000000000000E+00  0.0000000000000E+00
   381  3.8000000000000E+00  0.0000000000000E+00  0.0000000000000E+00
   382  3.8100000000000E+00  0.0000000000000E+00  0.0000000000000E+00
   383  3.8200000000000E+00  0.0000000000000E+00  0.0000000000000E+00
   384  3.8300000000000E+00  0.0000000000000E+00  0.0000000000000E+00
   385  3.8400000000000E+00  0.0000000000000E+00  0.0000000000000E+00
   386  3.8500000000000E+00  0.0000000000000E+00  0.0000000000000E+00
   387  3.8600000000000E+00  0.0000000000000E+00  0.0000000000000E+00
   388  3.8700000000000E+00  0.0000000000000E+00  0.0000000000000E+00
   389  3.8800000000000E+00  0.0000000000000E+00  0.0000000000000E+00
   390  3.8900000000000E+00  0.0000000000000E+00  0.0000000000000E+00
   391  3.9000000000000E+00  0.0000000000000E+00  0.0000000000000E+00
   392  3.9100000000000E+00  0.0000000000000E+00  0.0000000000000E+00
   393  3.9200000000000E+00  0.0000000000000E+00  0.0000000000000E+00
   394  3.9300000000000E+00  0.0000000000000E+00  0.0000000000000E+00
   395  3.9400000000000E+00  0.0000000000000E+00  0.0000000000000E+00
   396  3.9500000000000E+00  0.0000000000000E+00  0.0000000000000E+00
   397  3.9600000000000E+00  0.0000000000000E+00  0.0000000000000E+00
   398  3.9700000000000E+00  0.0000000000000E+00  0.0000000000000E+00
   399  3.9800000000000E+00  0.0000000000000E+00  0.0000000000000E+00
   400  3.9900000000000E+00  0.0000000000000E+00  0.0000000000000E+00
   1                        -4.6462908607930E+00 -1.3207407426644E+00
     1  0.0000000000000E+00 -3.5788544350268E-10  9.9376047842104E-10
     2  1.0000000000000E-02  1.4484332415350E-03 -2.1179073833886E-04
     3  2.0000000000000E-02  5.7896374501577E-03 -8.4782817864529E-04
     4  3.0000000000000E-02  1.3011323715878E-02 -1.9100705812082E-03
     5  4.0000000000000E-02  2.3093002848846E-02 -3.4016575405813E-03
     6  5.0000000000000E-02  3.6005974567659E-02 -5.3267256311814E-03
     7  6.0000000000000E-02  5.1713313749474E-02 -7.6901540977473E-03
     8  7.0000000000000E-02  7.0169855106007E-02 -1.0497244325762E-02
     9  8.0000000000000E-02  9.1322178007379E-02 -1.3753337820701E-02
    10  9.0000000000000E-02  1.1510859351026E-01 -1.7463378365069E-02
    11  1.0000000000000E-01  1.4145913595319E-01 -2.1631424897348E-02
    12  1.1000000000000E-01  1.7029556175612E-01 -2.6260122457621E-02
    13  1.2000000000000E-01  2.0153135829823E-01 -3.1350139260074E-02
    14  1.3000000000000E-01  2.3507176594610E-01 -3.6899578576241E-02
    15  1.4000000000000E-01  2.7081381645762E-01 -4.2903374634950E-02
    16  1.5000000000000E-01  3.0864639109544E-01 -4.9352682160522E-02
    17  1.6000000000000E-01  3.4845030184329E-01 -5.6234269473813E-02
    18  1.7000000000000E-01  3.9009839912781E-01 -6.3529925266221E-02
    19  1.8000000000000E-01  4.3345570940747E-01 -7.1215889223480E-02
    20  1.9000000000000E-01  4.7837960589640E-01 -7.9262316619560E-02
    21  2.0000000000000E-01  5.2472001554628E-01 -8.7632786823567E-02
    22  2.1000000000000E-01  5.7231966521292E-01 -9.6283865362106E-02