Ti    ONCVPSP-3.3.1  r_core=   1.35825   1.31050   1.66360
     22.0000     12.0000      201113    zatom,zion,pspd
     8       2   2     4   600     0    pspcod,pspxc,lmax,lloc,mmax,r2well
  5.99000000  2.50000000  0.00000000    rchrg fchrg qchrg
     2     2     2     0     0    nproj
     1     1           extension_switch
   0                         1.1217743108020E+01  1.2411703837367E+00
     1  0.0000000000000E+00 -1.6106207478828E-09  5.4169295715667E-09
     2  1.0000000000000E-02  8.8713328843002E-02 -4.5696838915191E-02
     3  2.0000000000000E-02  1.7713184546577E-01 -9.0926401304232E-02
     4  3.0000000000000E-02  2.6496279563914E-01 -1.3522701096195E-01
     5  4.0000000000000E-02  3.5191751470872E-01 -1.7814810638649E-01
     6  5.0000000000000E-02  4.3771340678340E-01 -2.1925558469571E-01
     7  6.0000000000000E-02  5.2207584637330E-01 -2.5813689335013E-01
     8  7.0000000000000E-02  6.0473997855336E-01 -2.9440579209693E-01
     9  8.0000000000000E-02  6.8545239533941E-01 -3.2770671296655E-01
    10  9.0000000000000E-02  7.6397266792678E-01 -3.5771865275621E-01
    11  1.0000000000000E-01  8.4007471672555E-01 -3.8415854011541E-01
    12  1.1000000000000E-01  9.1354800369370E-01 -4.0678402798122E-01
    13  1.2000000000000E-01  9.8419853427769E-01 -4.2539567155384E-01
    14  1.3000000000000E-01  1.0518496592735E+00 -4.3983846210090E-01
    15  1.4000000000000E-01  1.1163426700706E+00 -4.5000269746573E-01
    16  1.5000000000000E-01  1.1775371839844E+00 -4.5582418105639E-01
    17  1.6000000000000E-01  1.2353113196674E+00 -4.5728375212765E-01
    18  1.7000000000000E-01  1.2895616658600E+00 -4.5440616115681E-01
    19  1.8000000000000E-01  1.3402030499449E+00 -4.4725831487089E-01
    20  1.9000000000000E-01  1.3871681158523E+00 -4.3594692583272E-01
    21  2.0000000000000E-01  1.4304067237760E+00 -4.2061561125972E-01
    22  2.1000000000000E-01  1.4698851868506E+00 -4.0144149477172E-01
    23  2.2000000000000E-01  1.5055853623676E+00 -3.7863137288926E-01
    24  2.3000000000000E-01  1.5375036172323E+00 -3.5241751519455E-01
    25  2.4000000000000E-01  1.5656496891395E+00 -3.2305317300329E-01
    26  2.5000000000000E-01  1.5900454663618E+00 -2.9080787607287E-01
    27  2.6000000000000E-01  1.6107237100529E+00 -2.5596260021204E-01
    28  2.7000000000000E-01  1.6277267435743E+00 -2.1880489059515E-01
    29  2.8000000000000E-01  1.6411051335310E+00 -1.7962402608733E-01
    30  2.9000000000000E-01  1.6509163869509E+00 -1.3870630893809E-01
    31  3.0000000000000E-01  1.6572236883721E+00 -9.6330561813224E-02
    32  3.1000000000000E-01  1.6600946995149E+00 -5.2763910341151E-02
    33  3.2000000000000E-01  1.6596004427327E+00 -8.2579242079031E-03
    34  3.3000000000000E-01  1.6558142875826E+00  3.6954816573191E-02
    35  3.4000000000000E-01  1.6488110576592E+00  8.2663671166113E-02
    36  3.5000000000000E-01  1.6386662723381E+00  1.2868235275640E-01
    37  3.6000000000000E-01  1.6254555353083E+00  1.7485076782133E-01
    38  3.7000000000000E-01  1.6092540787956E+00  2.2103624917945E-01
    39  3.8000000000000E-01  1.5901364692318E+00  2.6713416301715E-01
    40  3.9000000000000E-01  1.5681764768654E+00  3.1306788133229E-01
    41  4.0000000000000E-01  1.5434471084960E+00  3.5878812268425E-01
    42  4.1000000000000E-01  1.5160207991963E+00  4.0427167560653E-01
    43  4.2000000000000E-01  1.4859697556326E+00  4.4951953032371E-01
    44  4.3000000000000E-01  1.4533664404501E+00  4.9455445532991E-01
    45  4.4000000000000E-01  1.4182841842216E+00  5.3941806573719E-01
    46  4.5000000000000E-01  1.3807979087091E+00  5.8416743991400E-01
    47  4.6000000000000E-01  1.3409849427182E+00  6.2887134963294E-01
    48  4.7000000000000E-01  1.2989259096716E+00  6.7360617657675E-01
    49  4.8000000000000E-01  1.2547056642376E+00  7.1845159447653E-01
    50  4.9000000000000E-01  1.2084142539517E+00  7.6348610125008E-01
    51  5.0000000000000E-01  1.1601478808012E+00  8.0878248917703E-01
    52  5.1000000000000E-01  1.1100098372140E+00  8.5440334331139E-01
    53  5.2000000000000E-01  1.0581113908299E+00  9.0039665894066E-01
    54  5.3000000000000E-01  1.0045725928353E+00  9.4679166792556E-01
    55  5.4000000000000E-01  9.4952298551103E-01  9.9359496120253E-01
    56  5.5000000000000E-01  8.9310218596777E-01  1.0407869906129E+00
    57  5.6000000000000E-01  8.3546032481248E-01  1.0883190276183E+00
    58  5.7000000000000E-01  7.7675832067023E-01  1.1361106494130E+00
    59  5.8000000000000E-01  7.1716797405227E-01  1.1840478145958E+00
    60  5.9000000000000E-01  6.5687186697472E-01  1.2319815810008E+00
    61  6.0000000000000E-01  5.9606305794123E-01  1.2797275077025E+00
    62  6.1000000000000E-01  5.3494456537096E-01  1.3270657717079E+00
    63  6.2000000000000E-01  4.7372863619734E-01  1.3737420177193E+00
    64  6.3000000000000E-01  4.1263580017002E-01  1.4194689466224E+00
    65  6.4000000000000E-01  3.5189371423540E-01  1.4639286354593E+00
    66  6.5000000000000E-01  2.9173580525272E-01  1.5067755685726E+00
    67  6.6000000000000E-01  2.3239972311218E-01  1.5476403467193E+00
    68  6.7000000000000E-01  1.7412561999657E-01  1.5861340284706E+00
    69  6.8000000000000E-01  1.1715427503699E-01  1.6218530462310E+00
    70  6.9000000000000E-01  6.1725086854064E-02  1.6543846280797E+00
    71  7.0000000000000E-01  8.0739594151613E-03  1.6833126464610E+00
    72  7.1000000000000E-01 -4.3568890797570E-02  1.7082238057931E+00
    73  7.2000000000000E-01 -9.2981176140428E-02  1.7287140733591E+00
    74  7.3000000000000E-01 -1.3995079582213E-01  1.7443952517143E+00
    75  7.4000000000000E-01 -1.8427807750253E-01  1.7549015862682E+00
    76  7.5000000000000E-01 -2.2577796871017E-01  1.7598962988483E+00
    77  7.6000000000000E-01 -2.6428214416100E-01  1.7590779369713E+00
    78  7.7000000000000E-01 -2.9964099546087E-01  1.7521864292904E+00
    79  7.8000000000000E-01 -3.3172547063080E-01  1.7390087402617E+00
    80  7.9000000000000E-01 -3.6042873239394E-01  1.7193840214599E+00
    81  8.0000000000000E-01 -3.8566760619654E-01  1.6932081631257E+00
    82  8.1000000000000E-01 -4.0738379147410E-01  1.6604376573724E+00
    83  8.2000000000000E-01 -4.2554481268520E-01  1.6210926938987E+00
    84  8.3000000000000E-01 -4.4014469007800E-01  1.5752594199306E+00
    85  8.4000000000000E-01 -4.5120431397793E-01  1.5230913082694E+00
    86  8.5000000000000E-01 -4.5877151053322E-01  1.4648095905897E+00
    87  8.6000000000000E-01 -4.6292079126621E-01  1.4007027272924E+00
    88  8.7000000000000E-01 -4.6375278338357E-01  1.3311249000646E+00
    89  8.8000000000000E-01 -4.6139334252759E-01  1.2564935285885E+00
    90  8.9000000000000E-01 -4.5599235442799E-01  1.1772858283312E+00
    91  9.0000000000000E-01 -4.4772223666326E-01  1.0940344417925E+00
    92  9.1000000000000E-01 -4.3677615638575E-01  1.0073221907257E+00
    93  9.2000000000000E-01 -4.2336598432897E-01  9.1777601143404E-01
    94  9.3000000000000E-01 -4.0772000962586E-01  8.2606014903410E-01
    95  9.4000000000000E-01 -3.9008044385075E-01  7.3286869933581E-01
    96  9.5000000000000E-01 -3.7070074619086E-01  6.3891759849314E-01
    97  9.6000000000000E-01 -3.4984280469237E-01  5.4493617062876E-01
    98  9.7000000000000E-01 -3.2777401107000E-01  4.5165835209025E-01
    99  9.8000000000000E-01 -3.0476426851810E-01  3.5981371751575E-01
   100  9.9000000000000E-01 -2.8108297339663E-01  2.7011843775384E-01
   101  1.0000000000000E+00 -2.5699601240446E-01  1.8326630227790E-01
   102  1.0100000000000E+00 -2.3276281699099E-01  9.9919939377915E-02
   103  1.0200000000000E+00 -2.0863351624231E-01  2.0702365925251E-02
   104  1.0300000000000E+00 -1.8484622833092E-01 -5.3811005047922E-02
   105  1.0400000000000E+00 -1.6162452869841E-01 -1.2309977678455E-01
   106  1.0500000000000E+00 -1.3917513101803E-01 -1.8670528584562E-01
   107  1.0600000000000E+00 -1.1768581364500E-01 -2.4423651905670E-01
   108  1.0700000000000E+00 -9.7323620958804E-02 -2.9537513628862E-01
   109  1.0800000000000E+00 -7.8233364961650E-02 -3.3987951803389E-01
   110  1.0900000000000E+00 -6.0536447689770E-02 -3.7758777228546E-01
   111  1.1000000000000E+00 -4.4330021097852E-02 -4.0841964783503E-01
   112  1.1100000000000E+00 -2.9686494834584E-02 -4.3237732134371E-01
   113  1.1200000000000E+00 -1.6653397851037E-02 -4.4954504006808E-01
   114  1.1300000000000E+00 -5.2535936964008E-03 -4.6008762189519E-01
   115  1.1400000000000E+00  4.5141552476779E-03 -4.6424782930090E-01
   116  1.1500000000000E+00  1.2674285613677E-02 -4.6234265423873E-01
   117  1.1600000000000E+00  1.9273208997317E-02 -4.5475856724580E-01
   118  1.1700000000000E+00  2.4377787483838E-02 -4.4194580180386E-01
   119  1.1800000000000E+00  2.8073533802423E-02 -4.2441175663640E-01
   120  1.1900000000000E+00  3.0462567290000E-02 -4.0271361858981E-01
   121  1.2000000000000E+00  3.1661359918934E-02 -3.7745031875713E-01
   122  1.2100000000000E+00  3.1798310103338E-02 -3.4925394577021E-01
   123  1.2200000000000E+00  3.1011184864092E-02 -3.1878074951980E-01
   124  1.2300000000000E+00  2.9444474047797E-02 -2.8670187869952E-01
   125  1.2400000000000E+00  2.7246700871621E-02 -2.5369399742177E-01
   126  1.2500000000000E+00  2.4567734560272E-02 -2.2042993102601E-01
   127  1.2600000000000E+00  2.1556151566188E-02 -1.8756949350360E-01
   128  1.2700000000000E+00  1.8356694830831E-02 -1.5575066056956E-01
   129  1.2800000000000E+00  1.5107844095947E-02 -1.2558111826419E-01
   130  1.2900000000000E+00  1.1939647856880E-02 -9.7630721684529E-02
   131  1.3000000000000E+00  8.9715007605721E-03 -7.2423701549321E-02
   132  1.3100000000000E+00  6.3110546790798E-03 -5.0434915346007E-02
   133  1.3200000000000E+00  4.0532552284669E-03 -3.2092956626708E-02
   134  1.3300000000000E+00  2.2581639763186E-03 -1.7643014331211E-02
   135  1.3400000000000E+00  1.0011263763510E-03 -7.4940456164169E-03
   136  1.3500000000000E+00  3.5537570446471E-04 -2.0824436943517E-03
   137  1.3600000000000E+00  1.1782860104440E-04 -1.9245377453300E-04
   138  1.3700000000000E+00  2.0368743573597E-05  6.4682431866591E-05
   139  1.3800000000000E+00 -5.6442424592585E-06 -4.2550667398537E-05
   140  1.3900000000000E+00 -7.1275195599497E-07 -8.6392129415539E-06
   141  1.4000000000000E+00  1.5670035675859E-06  6.9803929066320E-06
   142  1.4100000000000E+00 -1.9341407634384E-07  4.8104558900519E-07
   143  1.4200000000000E+00 -3.0080723010538E-07  7.4814612213547E-07
   144  1.4300000000000E+00  0.0000000000000E+00  0.0000000000000E+00
   145  1.4400000000000E+00  0.0000000000000E+00  0.0000000000000E+00
   146  1.4500000000000E+00  0.0000000000000E+00  0.0000000000000E+00
   147  1.4600000000000E+00  0.0000000000000E+00  0.0000000000000E+00
   148  1.4700000000000E+00  0.0000000000000E+00  0.0000000000000E+00
   149  1.4800000000000E+00  0.0000000000000E+00  0.0000000000000E+00
   150  1.4900000000000E+00  0.0000000000000E+00  0.0000000000000E+00
   151  1.5000000000000E+00  0.0000000000000E+00  0.0000000000000E+00
   152  1.5100000000000E+00  0.0000000000000E+00  0.0000000000000E+00
   153  1.5200000000000E+00  0.0000000000000E+00  0.0000000000000E+00
   154  1.5300000000000E+00  0.0000000000000E+00  0.0000000000000E+00
   155  1.5400000000000E+00  0.0000000000000E+00  0.0000000000000E+00
   156  1.5500000000000E+00  0.0000000000000E+00  0.0000000000000E+00
   157  1.5600000000000E+00  0.0000000000000E+00  0.0000000000000E+00
   158  1.5700000000000E+00  0.0000000000000E+00  0.0000000000000E+00
   159  1.5800000000000E+00  0.0000000000000E+00  0.0000000000000E+00
   160  1.5900000000000E+00  0.0000000000000E+00  0.0000000000000E+00
   161  1.6000000000000E+00  0.0000000000000E+00  0.0000000000000E+00
   162  1.6100000000000E+00  0.0000000000000E+00  0.0000000000000E+00
   163  1.6200000000000E+00  0.0000000000000E+00  0.0000000000000E+00
   164  1.6300000000000E+00  0.0000000000000E+00  0.0000000000000E+00
   165  1.6400000000000E+00  0.0000000000000E+00  0.0000000000000E+00
   166  1.6500000000000E+00  0.0000000000000E+00  0.0000000000000E+00
   167  1.6600000000000E+00  0.0000000000000E+00  0.0000000000000E+00
   168  1.6700000000000E+00  0.0000000000000E+00  0.0000000000000E+00
   169  1.6800000000000E+00  0.0000000000000E+00  0.0000000000000E+00
   170  1.6900000000000E+00  0.0000000000000E+00  0.0000000000000E+00
   171  1.7000000000000E+00  0.0000000000000E+00  0.0000000000000E+00
   172  1.7100000000000E+00  0.0000000000000E+00  0.0000000000000E+00
   173  1.7200000000000E+00  0.0000000000000E+00  0.0000000000000E+00
   174  1.7300000000000E+00  0.0000000000000E+00  0.0000000000000E+00
   175  1.7400000000000E+00  0.0000000000000E+00  0.0000000000000E+00
   176  1.7500000000000E+00  0.0000000000000E+00  0.0000000000000E+00
   177  1.7600000000000E+00  0.0000000000000E+00  0.0000000000000E+00
   178  1.7700000000000E+00  0.0000000000000E+00  0.0000000000000E+00
   179  1.7800000000000E+00  0.0000000000000E+00  0.0000000000000E+00
   180  1.7900000000000E+00  0.0000000000000E+00  0.0000000000000E+00
   181  1.8000000000000E+00  0.0000000000000E+00  0.0000000000000E+00
   182  1.8100000000000E+00  0.0000000000000E+00  0.0000000000000E+00
   183  1.8200000000000E+00  0.0000000000000E+00  0.0000000000000E+00
   184  1.8300000000000E+00  0.0000000000000E+00  0.0000000000000E+00
   185  1.8400000000000E+00  0.0000000000000E+00  0.0000000000000E+00
   186  1.8500000000000E+00  0.0000000000000E+00  0.0000000000000E+00
   187  1.8600000000000E+00  0.0000000000000E+00  0.0000000000000E+00
   188  1.8700000000000E+00  0.0000000000000E+00  0.0000000000000E+00
   189  1.8800000000000E+00  0.0000000000000E+00  0.0000000000000E+00
   190  1.8900000000000E+00  0.0000000000000E+00  0.0000000000000E+00
   191  1.9000000000000E+00  0.0000000000000E+00  0.0000000000000E+00
   192  1.9100000000000E+00  0.0000000000000E+00  0.0000000000000E+00
   193  1.9200000000000E+00  0.0000000000000E+00  0.0000000000000E+00
   194  1.9300000000000E+00  0.0000000000000E+00  0.0000000000000E+00
   195  1.9400000000000E+00  0.0000000000000E+00  0.0000000000000E+00
   196  1.9500000000000E+00  0.0000000000000E+00  0.0000000000000E+00
   197  1.9600000000000E+00  0.0000000000000E+00  0.0000000000000E+00
   198  1.9700000000000E+00  0.0000000000000E+00  0.0000000000000E+00
   199  1.9800000000000E+00  0.0000000000000E+00  0.0000000000000E+00
   200  1.9900000000000E+00  0.0000000000000E+00  0.0000000000000E+00
   201  2.0000000000000E+00  0.0000000000000E+00  0.0000000000000E+00
   202  2.0100000000000E+00  0.0000000000000E+00  0.0000000000000E+00
   203  2.0200000000000E+00  0.0000000000000E+00  0.0000000000000E+00
   204  2.0300000000000E+00  0.0000000000000E+00  0.0000000000000E+00
   205  2.0400000000000E+00  0.0000000000000E+00  0.0000000000000E+00
   206  2.0500000000000E+00  0.0000000000000E+00  0.0000000000000E+00
   207  2.0600000000000E+00  0.0000000000000E+00  0.0000000000000E+00
   208  2.0700000000000E+00  0.0000000000000E+00  0.0000000000000E+00
   209  2.0800000000000E+00  0.0000000000000E+00  0.0000000000000E+00
   210  2.0900000000000E+00  0.0000000000000E+00  0.0000000000000E+00
   211  2.1000000000000E+00  0.0000000000000E+00  0.0000000000000E+00
   212  2.1100000000000E+00  0.0000000000000E+00  0.0000000000000E+00
   213  2.1200000000000E+00  0.0000000000000E+00  0.0000000000000E+00
   214  2.1300000000000E+00  0.0000000000000E+00  0.0000000000000E+00
   215  2.1400000000000E+00  0.0000000000000E+00  0.0000000000000E+00
   216  2.1500000000000E+00  0.0000000000000E+00  0.0000000000000E+00
   217  2.1600000000000E+00  0.0000000000000E+00  0.0000000000000E+00
   218  2.1700000000000E+00  0.0000000000000E+00  0.0000000000000E+00
   219  2.1800000000000E+00  0.0000000000000E+00  0.0000000000000E+00
   220  2.1900000000000E+00  0.0000000000000E+00  0.0000000000000E+00
   221  2.2000000000000E+00  0.0000000000000E+00  0.0000000000000E+00
   222  2.2100000000000E+00  0.0000000000000E+00  0.0000000000000E+00
   223  2.2200000000000E+00  0.0000000000000E+00  0.0000000000000E+00
   224  2.2300000000000E+00  0.0000000000000E+00  0.0000000000000E+00
   225  2.2400000000000E+00  0.0000000000000E+00  0.0000000000000E+00
   226  2.2500000000000E+00  0.0000000000000E+00  0.0000000000000E+00
   227  2.2600000000000E+00  0.0000000000000E+00  0.0000000000000E+00
   228  2.2700000000000E+00  0.0000000000000E+00  0.0000000000000E+00
   229  2.2800000000000E+00  0.0000000000000E+00  0.0000000000000E+00
   230  2.2900000000000E+00  0.0000000000000E+00  0.0000000000000E+00
   231  2.3000000000000E+00  0.0000000000000E+00  0.0000000000000E+00
   232  2.3100000000000E+00  0.0000000000000E+00  0.0000000000000E+00
   233  2.3200000000000E+00  0.0000000000000E+00  0.0000000000000E+00
   234  2.3300000000000E+00  0.0000000000000E+00  0.0000000000000E+00
   235  2.3400000000000E+00  0.0000000000000E+00  0.0000000000000E+00
   236  2.3500000000000E+00  0.0000000000000E+00  0.0000000000000E+00
   237  2.3600000000000E+00  0.0000000000000E+00  0.0000000000000E+00
   238  2.3700000000000E+00  0.0000000000000E+00  0.0000000000000E+00
   239  2.3800000000000E+00  0.0000000000000E+00  0.0000000000000E+00
   240  2.3900000000000E+00  0.0000000000000E+00  0.0000000000000E+00
   241  2.4000000000000E+00  0.0000000000000E+00  0.0000000000000E+00
   242  2.4100000000000E+00  0.0000000000000E+00  0.0000000000000E+00
   243  2.4200000000000E+00  0.0000000000000E+00  0.0000000000000E+00
   244  2.4300000000000E+00  0.0000000000000E+00  0.0000000000000E+00
   245  2.4400000000000E+00  0.0000000000000E+00  0.0000000000000E+00
   246  2.4500000000000E+00  0.0000000000000E+00  0.0000000000000E+00
   247  2.4600000000000E+00  0.0000000000000E+00  0.0000000000000E+00
   248  2.4700000000000E+00  0.0000000000000E+00  0.0000000000000E+00
   249  2.4800000000000E+00  0.0000000000000E+00  0.0000000000000E+00
   250  2.4900000000000E+00  0.0000000000000E+00  0.0000000000000E+00
   251  2.5000000000000E+00  0.0000000000000E+00  0.0000000000000E+00
   252  2.5100000000000E+00  0.0000000000000E+00  0.0000000000000E+00
   253  2.5200000000000E+00  0.0000000000000E+00  0.0000000000000E+00
   254  2.5300000000000E+00  0.0000000000000E+00  0.0000000000000E+00
   255  2.5400000000000E+00  0.0000000000000E+00  0.0000000000000E+00
   256  2.5500000000000E+00  0.0000000000000E+00  0.0000000000000E+00
   257  2.5600000000000E+00  0.0000000000000E+00  0.0000000000000E+00
   258  2.5700000000000E+00  0.0000000000000E+00  0.0000000000000E+00
   259  2.5800000000000E+00  0.0000000000000E+00  0.0000000000000E+00
   260  2.5900000000000E+00  0.0000000000000E+00  0.0000000000000E+00
   261  2.6000000000000E+00  0.0000000000000E+00  0.0000000000000E+00
   262  2.6100000000000E+00  0.0000000000000E+00  0.0000000000000E+00
   263  2.6200000000000E+00  0.0000000000000E+00  0.0000000000000E+00
   264  2.6300000000000E+00  0.0000000000000E+00  0.0000000000000E+00
   265  2.6400000000000E+00  0.0000000000000E+00  0.0000000000000E+00
   266  2.6500000000000E+00  0.0000000000000E+00  0.0000000000000E+00
   267  2.6600000000000E+00  0.0000000000000E+00  0.0000000000000E+00
   268  2.6700000000000E+00  0.0000000000000E+00  0.0000000000000E+00
   269  2.6800000000000E+00  0.0000000000000E+00  0.0000000000000E+00
   270  2.6900000000000E+00  0.0000000000000E+00  0.0000000000000E+00
   271  2.7000000000000E+00  0.0000000000000E+00  0.0000000000000E+00
   272  2.7100000000000E+00  0.0000000000000E+00  0.0000000000000E+00
   273  2.7200000000000E+00  0.0000000000000E+00  0.0000000000000E+00
   274  2.7300000000000E+00  0.0000000000000E+00  0.0000000000000E+00
   275  2.7400000000000E+00  0.0000000000000E+00  0.0000000000000E+00
   276  2.7500000000000E+00  0.0000000000000E+00  0.0000000000000E+00
   277  2.7600000000000E+00  0.0000000000000E+00  0.0000000000000E+00
   278  2.7700000000000E+00  0.0000000000000E+00  0.0000000000000E+00
   279  2.7800000000000E+00  0.0000000000000E+00  0.0000000000000E+00
   280  2.7900000000000E+00  0.0000000000000E+00  0.0000000000000E+00
   281  2.8000000000000E+00  0.0000000000000E+00  0.0000000000000E+00
   282  2.8100000000000E+00  0.0000000000000E+00  0.0000000000000E+00
   283  2.8200000000000E+00  0.0000000000000E+00  0.0000000000000E+00
   284  2.8300000000000E+00  0.0000000000000E+00  0.0000000000000E+00
   285  2.8400000000000E+00  0.0000000000000E+00  0.0000000000000E+00
   286  2.8500000000000E+00  0.0000000000000E+00  0.0000000000000E+00
   287  2.8600000000000E+00  0.0000000000000E+00  0.0000000000000E+00
   288  2.8700000000000E+00  0.0000000000000E+00  0.0000000000000E+00
   289  2.8800000000000E+00  0.0000000000000E+00  0.0000000000000E+00
   290  2.8900000000000E+00  0.0000000000000E+00  0.0000000000000E+00
   291  2.9000000000000E+00  0.0000000000000E+00  0.0000000000000E+00
   292  2.9100000000000E+00  0.0000000000000E+00  0.0000000000000E+00
   293  2.9200000000000E+00  0.0000000000000E+00  0.0000000000000E+00
   294  2.9300000000000E+00  0.0000000000000E+00  0.0000000000000E+00
   295  2.9400000000000E+00  0.0000000000000E+00  0.0000000000000E+00
   296  2.9500000000000E+00  0.0000000000000E+00  0.0000000000000E+00
   297  2.9600000000000E+00  0.0000000000000E+00  0.0000000000000E+00
   298  2.9700000000000E+00  0.0000000000000E+00  0.0000000000000E+00
   299  2.9800000000000E+00  0.0000000000000E+00  0.0000000000000E+00
   300  2.9900000000000E+00  0.0000000000000E+00  0.0000000000000E+00
   301  3.0000000000000E+00  0.0000000000000E+00  0.0000000000000E+00
   302  3.0100000000000E+00  0.0000000000000E+00  0.0000000000000E+00
   303  3.0200000000000E+00  0.0000000000000E+00  0.0000000000000E+00
   304  3.0300000000000E+00  0.0000000000000E+00  0.0000000000000E+00
   305  3.0400000000000E+00  0.0000000000000E+00  0.0000000000000E+00
   306  3.0500000000000E+00  0.0000000000000E+00  0.0000000000000E+00
   307  3.0600000000000E+00  0.0000000000000E+00  0.0000000000000E+00
   308  3.0700000000000E+00  0.0000000000000E+00  0.0000000000000E+00
   309  3.0800000000000E+00  0.0000000000000E+00  0.0000000000000E+00
   310  3.0900000000000E+00  0.0000000000000E+00  0.0000000000000E+00
   311  3.1000000000000E+00  0.0000000000000E+00  0.0000000000000E+00
   312  3.1100000000000E+00  0.0000000000000E+00  0.0000000000000E+00
   313  3.1200000000000E+00  0.0000000000000E+00  0.0000000000000E+00
   314  3.1300000000000E+00  0.0000000000000E+00  0.0000000000000E+00
   315  3.1400000000000E+00  0.0000000000000E+00  0.0000000000000E+00
   316  3.1500000000000E+00  0.0000000000000E+00  0.0000000000000E+00
   317  3.1600000000000E+00  0.0000000000000E+00  0.0000000000000E+00
   318  3.1700000000000E+00  0.0000000000000E+00  0.0000000000000E+00
   319  3.1800000000000E+00  0.0000000000000E+00  0.0000000000000E+00
   320  3.1900000000000E+00  0.0000000000000E+00  0.0000000000000E+00
   321  3.2000000000000E+00  0.0000000000000E+00  0.0000000000000E+00
   322  3.2100000000000E+00  0.0000000000000E+00  0.0000000000000E+00
   323  3.2200000000000E+00  0.0000000000000E+00  0.0000000000000E+00
   324  3.2300000000000E+00  0.0000000000000E+00  0.0000000000000E+00
   325  3.2400000000000E+00  0.0000000000000E+00  0.0000000000000E+00
   326  3.2500000000000E+00  0.0000000000000E+00  0.0000000000000E+00
   327  3.2600000000000E+00  0.0000000000000E+00  0.0000000000000E+00
   328  3.2700000000000E+00  0.0000000000000E+00  0.0000000000000E+00
   329  3.2800000000000E+00  0.0000000000000E+00  0.0000000000000E+00
   330  3.2900000000000E+00  0.0000000000000E+00  0.0000000000000E+00
   331  3.3000000000000E+00  0.0000000000000E+00  0.0000000000000E+00
   332  3.3100000000000E+00  0.0000000000000E+00  0.0000000000000E+00
   333  3.3200000000000E+00  0.0000000000000E+00  0.0000000000000E+00
   334  3.3300000000000E+00  0.0000000000000E+00  0.0000000000000E+00
   335  3.3400000000000E+00  0.0000000000000E+00  0.0000000000000E+00
   336  3.3500000000000E+00  0.0000000000000E+00  0.0000000000000E+00
   337  3.3600000000000E+00  0.0000000000000E+00  0.0000000000000E+00
   338  3.3700000000000E+00  0.0000000000000E+00  0.0000000000000E+00
   339  3.3800000000000E+00  0.0000000000000E+00  0.0000000000000E+00
   340  3.3900000000000E+00  0.0000000000000E+00  0.0000000000000E+00
   341  3.4000000000000E+00  0.0000000000000E+00  0.0000000000000E+00
   342  3.4100000000000E+00  0.0000000000000E+00  0.0000000000000E+00
   343  3.4200000000000E+00  0.0000000000000E+00  0.0000000000000E+00
   344  3.4300000000000E+00  0.0000000000000E+00  0.0000000000000E+00
   345  3.4400000000000E+00  0.0000000000000E+00  0.0000000000000E+00
   346  3.4500000000000E+00  0.0000000000000E+00  0.0000000000000E+00
   347  3.4600000000000E+00  0.0000000000000E+00  0.0000000000000E+00
   348  3.4700000000000E+00  0.0000000000000E+00  0.0000000000000E+00
   349  3.4800000000000E+00  0.0000000000000E+00  0.0000000000000E+00
   350  3.4900000000000E+00  0.0000000000000E+00  0.0000000000000E+00
   351  3.5000000000000E+00  0.0000000000000E+00  0.0000000000000E+00
   352  3.5100000000000E+00  0.0000000000000E+00  0.0000000000000E+00
   353  3.5200000000000E+00  0.0000000000000E+00  0.0000000000000E+00
   354  3.5300000000000E+00  0.0000000000000E+00  0.0000000000000E+00
   355  3.5400000000000E+00  0.0000000000000E+00  0.0000000000000E+00
   356  3.5500000000000E+00  0.0000000000000E+00  0.0000000000000E+00
   357  3.5600000000000E+00  0.0000000000000E+00  0.0000000000000E+00
   358  3.5700000000000E+00  0.0000000000000E+00  0.0000000000000E+00
   359  3.5800000000000E+00  0.0000000000000E+00  0.0000000000000E+00
   360  3.5900000000000E+00  0.0000000000000E+00  0.0000000000000E+00
   361  3.6000000000000E+00  0.0000000000000E+00  0.0000000000000E+00
   362  3.6100000000000E+00  0.0000000000000E+00  0.0000000000000E+00
   363  3.6200000000000E+00  0.0000000000000E+00  0.0000000000000E+00
   364  3.6300000000000E+00  0.0000000000000E+00  0.0000000000000E+00
   365  3.6400000000000E+00  0.0000000000000E+00  0.0000000000000E+00
   366  3.6500000000000E+00  0.0000000000000E+00  0.0000000000000E+00
   367  3.6600000000000E+00  0.0000000000000E+00  0.0000000000000E+00
   368  3.6700000000000E+00  0.0000000000000E+00  0.0000000000000E+00
   369  3.6800000000000E+00  0.0000000000000E+00  0.0000000000000E+00
   370  3.6900000000000E+00  0.0000000000000E+00  0.0000000000000E+00
   371  3.7000000000000E+00  0.0000000000000E+00  0.0000000000000E+00
   372  3.7100000000000E+00  0.0000000000000E+00  0.0000000000000E+00
   373  3.7200000000000E+00  0.0000000000000E+00  0.0000000000000E+00
   374  3.7300000000000E+00  0.0000000000000E+00  0.0000000000000E+00
   375  3.7400000000000E+00  0.0000000000000E+00  0.0000000000000E+00
   376  3.7500000000000E+00  0.0000000000000E+00  0.0000000000000E+00
   377  3.7600000000000E+00  0.0000000000000E+00  0.0000000000000E+00
   378  3.7700000000000E+00  0.0000000000000E+00  0.0000000000000E+00
   379  3.7800000000000E+00  0.0000000000000E+00  0.0000000000000E+00
   380  3.7900000000000E+00  0.0000000000000E+00  0.0000000000000E+00
   381  3.8000000000000E+00  0.0000000000000E+00  0.0000000000000E+00
   382  3.8100000000000E+00  0.0000000000000E+00  0.0000000000000E+00
   383  3.8200000000000E+00  0.0000000000000E+00  0.0000000000000E+00
   384  3.8300000000000E+00  0.0000000000000E+00  0.0000000000000E+00
   385  3.8400000000000E+00  0.0000000000000E+00  0.0000000000000E+00
   386  3.8500000000000E+00  0.0000000000000E+00  0.0000000000000E+00
   387  3.8600000000000E+00  0.0000000000000E+00  0.0000000000000E+00
   388  3.8700000000000E+00  0.0000000000000E+00  0.0000000000000E+00
   389  3.8800000000000E+00  0.0000000000000E+00  0.0000000000000E+00
   390  3.8900000000000E+00  0.0000000000000E+00  0.0000000000000E+00
   391  3.9000000000000E+00  0.0000000000000E+00  0.0000000000000E+00
   392  3.9100000000000E+00  0.0000000000000E+00  0.0000000000000E+00
   393  3.9200000000000E+00  0.0000000000000E+00  0.0000000000000E+00
   394  3.9300000000000E+00  0.0000000000000E+00  0.0000000000000E+00
   395  3.9400000000000E+00  0.0000000000000E+00  0.0000000000000E+00
   396  3.9500000000000E+00  0.0000000000000E+00  0.0000000000000E+00
   397  3.9600000000000E+00  0.0000000000000E+00  0.0000000000000E+00
   398  3.9700000000000E+00  0.0000000000000E+00  0.0000000000000E+00
   399  3.9800000000000E+00  0.0000000000000E+00  0.0000000000000E+00
   400  3.9900000000000E+00  0.0000000000000E+00  0.0000000000000E+00
   401  4.0000000000000E+00  0.0000000000000E+00  0.0000000000000E+00
   402  4.0100000000000E+00  0.0000000000000E+00  0.0000000000000E+00
   403  4.0200000000000E+00  0.0000000000000E+00  0.0000000000000E+00
   404  4.0300000000000E+00  0.0000000000000E+00  0.0000000000000E+00
   405  4.0400000000000E+00  0.0000000000000E+00  0.0000000000000E+00
   406  4.0500000000000E+00  0.0000000000000E+00  0.0000000000000E+00
   407  4.0600000000000E+00  0.0000000000000E+00  0.0000000000000E+00
   408  4.0700000000000E+00  0.0000000000000E+00  0.0000000000000E+00
   409  4.0800000000000E+00  0.0000000000000E+00  0.0000000000000E+00
   410  4.0900000000000E+00  0.0000000000000E+00  0.0000000000000E+00
   411  4.1000000000000E+00  0.0000000000000E+00  0.0000000000000E+00
   412  4.1100000000000E+00  0.0000000000000E+00  0.0000000000000E+00
   413  4.1200000000000E+00  0.0000000000000E+00  0.0000000000000E+00
   414  4.1300000000000E+00  0.0000000000000E+00  0.0000000000000E+00
   415  4.1400000000000E+00  0.0000000000000E+00  0.0000000000000E+00
   416  4.1500000000000E+00  0.0000000000000E+00  0.0000000000000E+00
   417  4.1600000000000E+00  0.0000000000000E+00  0.0000000000000E+00
   418  4.1700000000000E+00  0.0000000000000E+00  0.0000000000000E+00
   419  4.1800000000000E+00  0.0000000000000E+00  0.0000000000000E+00
   420  4.1900000000000E+00  0.0000000000000E+00  0.0000000000000E+00
   421  4.2000000000000E+00  0.0000000000000E+00  0.0000000000000E+00
   422  4.2100000000000E+00  0.0000000000000E+00  0.0000000000000E+00