O     ONCVPSP-3.3.1  r_core=   1.29195   1.47310
      8.0000      6.0000      190128    zatom,zion,pspd
     8       2   1     4   600     0    pspcod,pspxc,lmax,lloc,mmax,r2well
  5.99000000  0.00000000  0.00000000    rchrg fchrg qchrg
     2     2     0     0     0    nproj
     1     1           extension_switch
   0                         9.8039458648062E+00  1.3940968705798E+00
     1  0.0000000000000E+00  2.8163213983134E-09 -9.8156246741699E-09
     2  1.0000000000000E-02  8.9663020185480E-02 -6.4027817020632E-03
     3  2.0000000000000E-02  1.7918092483447E-01 -1.3049427776932E-02
     4  3.0000000000000E-02  2.6840691548778E-01 -2.0176041044928E-02
     5  4.0000000000000E-02  3.5719087019612E-01 -2.8003350708319E-02
     6  5.0000000000000E-02  4.4537778693024E-01 -3.6729396702763E-02
     7  6.0000000000000E-02  5.3280635113698E-01 -4.6522652323702E-02
     8  7.0000000000000E-02  6.1930766545706E-01 -5.7515719480801E-02
     9  8.0000000000000E-02  7.0470417680425E-01 -6.9799721117865E-02
    10  9.0000000000000E-02  7.8880883257007E-01 -8.3419503369501E-02
    11  1.0000000000000E-01  8.7142449371820E-01 -9.8369746103570E-02
    12  1.1000000000000E-01  9.5234362803191E-01 -1.1459206484851E-01
    13  1.2000000000000E-01  1.0313483018487E+00 -1.3197316998196E-01
    14  1.3000000000000E-01  1.1082104833363E+00 -1.5034413074331E-01
    15  1.4000000000000E-01  1.1826926648206E+00 -1.6948077242832E-01
    16  1.5000000000000E-01  1.2545488059549E+00 -1.8910521534537E-01
    17  1.6000000000000E-01  1.3235255937164E+00 -2.0888854408794E-01
    18  1.7000000000000E-01  1.3893640094233E+00 -2.2845457573710E-01
    19  1.8000000000000E-01  1.4518011872782E+00 -2.4738467608605E-01
    20  1.9000000000000E-01  1.5105725434525E+00 -2.6522355420045E-01
    21  2.0000000000000E-01  1.5654141495302E+00 -2.8148594791135E-01
    22  2.1000000000000E-01  1.6160653192987E+00 -2.9566409648191E-01
    23  2.2000000000000E-01  1.6622713735128E+00 -3.0723588197458E-01
    24  2.3000000000000E-01  1.7037865434127E+00 -3.1567350802539E-01
    25  2.4000000000000E-01  1.7403769705430E+00 -3.2045257403308E-01
    26  2.5000000000000E-01  1.7718237578249E+00 -3.2106139438034E-01
    27  2.6000000000000E-01  1.7979260249536E+00 -3.1701040638094E-01
    28  2.7000000000000E-01  1.8185039200367E+00 -3.0784150729913E-01
    29  2.8000000000000E-01  1.8334015390070E+00 -2.9313716009328E-01
    30  2.9000000000000E-01  1.8424897047222E+00 -2.7252910951996E-01
    31  3.0000000000000E-01  1.8456685588283E+00 -2.4570655488315E-01
    32  3.1000000000000E-01  1.8428699213827E+00 -2.1242363296860E-01
    33  3.2000000000000E-01  1.8340593758926E+00 -1.7250607445688E-01
    34  3.3000000000000E-01  1.8192380407870E+00 -1.2585690922174E-01
    35  3.4000000000000E-01  1.7984439923520E+00 -7.2461110200767E-02
    36  3.5000000000000E-01  1.7717533087712E+00 -1.2389081754199E-02
    37  3.6000000000000E-01  1.7392807100478E+00  5.4201083654791E-02
    38  3.7000000000000E-01  1.7011797741681E+00  1.2706263730575E-01
    39  3.8000000000000E-01  1.6576427158184E+00  2.0586053103016E-01
    40  3.9000000000000E-01  1.6088997201830E+00  2.9017311425879E-01
    41  4.0000000000000E-01  1.5552178307505E+00  3.7949516500803E-01
    42  4.1000000000000E-01  1.4968993965271E+00  4.7324222688455E-01
    43  4.2000000000000E-01  1.4342800904993E+00  5.7075620287486E-01
    44  4.3000000000000E-01  1.3677265175103E+00  6.7131213604299E-01
    45  4.4000000000000E-01  1.2976334358012E+00  7.7412608763087E-01
    46  4.5000000000000E-01  1.2244206222349E+00  8.7836400477956E-01
    47  4.6000000000000E-01  1.1485294165692E+00  9.8315145347463E-01
    48  4.7000000000000E-01  1.0704189849879E+00  1.0875840776525E+00
    49  4.8000000000000E-01  9.9056234736461E-01  1.1907386329432E+00
    50  4.9000000000000E-01  9.0944221634647E-01  1.2916844334840E+00
    51  5.0000000000000E-01  8.2754669925025E-01  1.3894950427966E+00
    52  5.1000000000000E-01  7.4536491591358E-01  1.4832600350140E+00
    53  5.2000000000000E-01  6.6338258700389E-01  1.5720966508584E+00
    54  5.3000000000000E-01  5.8207764783533E-01  1.6551611737456E+00
    55  5.4000000000000E-01  5.0191594247190E-01  1.7316598552200E+00
    56  5.5000000000000E-01  4.2334705180743E-01  1.8008592255438E+00
    57  5.6000000000000E-01  3.4680030742678E-01  1.8620956345750E+00
    58  5.7000000000000E-01  2.7268104040715E-01  1.9147838798867E+00
    59  5.8000000000000E-01  2.0136711083962E-01  1.9584247932796E+00
    60  5.9000000000000E-01  1.3320575982831E-01  1.9926116730468E+00
    61  6.0000000000000E-01  6.8510821077059E-02  2.0170354674760E+00
    62  6.1000000000000E-01  7.5603240377331E-03  2.0314886345831E+00
    63  6.2000000000000E-01 -4.9405485002878E-02  2.0358676238454E+00
    64  6.3000000000000E-01 -1.0218568344691E-01  2.0301739472341E+00
    65  6.4000000000000E-01 -1.5061976022354E-01  2.0145138287603E+00
    66  6.5000000000000E-01 -1.9458824297923E-01  1.9890964438486E+00
    67  6.6000000000000E-01 -2.3401286298402E-01  1.9542307814575E+00
    68  6.7000000000000E-01 -2.6885626239664E-01  1.9103211828402E+00
    69  6.8000000000000E-01 -2.9912125465144E-01  1.8578616307671E+00
    70  6.9000000000000E-01 -3.2484965455966E-01  1.7974288814605E+00
    71  7.0000000000000E-01 -3.4612070017945E-01  1.7296745481842E+00
    72  7.1000000000000E-01 -3.6304909355304E-01  1.6553162601687E+00
    73  7.2000000000000E-01 -3.7578269188963E-01  1.5751280329148E+00
    74  7.3000000000000E-01 -3.8449988466992E-01  1.4899299958260E+00
    75  7.4000000000000E-01 -3.8940669539180E-01  1.4005776303647E+00
    76  7.5000000000000E-01 -3.9073364920598E-01  1.3079506763883E+00
    77  7.6000000000000E-01 -3.8873244950574E-01  1.2129418659607E+00
    78  7.7000000000000E-01 -3.8367250757392E-01  1.1164456426876E+00
    79  7.8000000000000E-01 -3.7583736968179E-01  1.0193470205969E+00
    80  7.9000000000000E-01 -3.6552108556839E-01  9.2251072981159E-01
    81  8.0000000000000E-01 -3.5302456103058E-01  8.2677078692483E-01
    82  8.1000000000000E-01 -3.3865193545650E-01  7.3292061624420E-01
    83  8.2000000000000E-01 -3.2270702258437E-01  6.4170383417866E-01
    84  8.3000000000000E-01 -3.0548984962164E-01  5.5380579325456E-01
    85  8.4000000000000E-01 -2.8729332618298E-01  4.6984596488037E-01
    86  8.5000000000000E-01 -2.6840007037643E-01  3.9037122136373E-01
    87  8.6000000000000E-01 -2.4907941486696E-01  3.1585005817557E-01
    88  8.7000000000000E-01 -2.2958461096574E-01  2.4666777742580E-01
    89  8.8000000000000E-01 -2.1015024382297E-01  1.8312263334043E-01
    90  8.9000000000000E-01 -1.9098986604052E-01  1.2542291736528E-01
    91  9.0000000000000E-01 -1.7229385204689E-01  7.3684943059780E-02
    92  9.1000000000000E-01 -1.5422752046992E-01  2.7932091868699E-02
    93  9.2000000000000E-01 -1.3692925731967E-01 -1.1906333602932E-02
    94  9.3000000000000E-01 -1.2051120556809E-01 -4.5984728023036E-02
    95  9.4000000000000E-01 -1.0506238348155E-01 -7.4521342541395E-02
    96  9.5000000000000E-01 -9.0650808367554E-02 -9.7785102012969E-02
    97  9.6000000000000E-01 -7.7324230892534E-02 -1.1608984051460E-01
    98  9.7000000000000E-01 -6.5111318011866E-02 -1.2978696626768E-01
    99  9.8000000000000E-01 -5.4022977350497E-02 -1.3925807122376E-01
   100  9.9000000000000E-01 -4.4053835327051E-02 -1.4490739731465E-01
   101  1.0000000000000E+00 -3.5183837768318E-02 -1.4715429253531E-01
   102  1.0100000000000E+00 -2.7379939303828E-02 -1.4642579456299E-01
   103  1.0200000000000E+00 -2.0597849087741E-02 -1.4314946901638E-01
   104  1.0300000000000E+00 -1.4783801251513E-02 -1.3774662112109E-01
   105  1.0400000000000E+00 -9.8763198789799E-03 -1.3062598929987E-01
   106  1.0500000000000E+00 -5.8079503351342E-03 -1.2217801630884E-01
   107  1.0600000000000E+00 -2.5069308181172E-03 -1.1276978146107E-01
   108  1.0700000000000E+00  1.0121888439697E-04 -1.0274066034687E-01
   109  1.0800000000000E+00  2.0922116436211E-03 -9.2398763813596E-02
   110  1.0900000000000E+00  3.5416270752912E-03 -8.2018190813498E-02
   111  1.1000000000000E+00  4.5236786383715E-03 -7.1837111903564E-02
   112  1.1100000000000E+00  5.1102606592498E-03 -6.2057152961654E-02
   113  1.1200000000000E+00  5.3692049460931E-03 -5.2840383220207E-02
   114  1.1300000000000E+00  5.3641890033145E-03 -4.4312208700560E-02
   115  1.1400000000000E+00  5.1654674342127E-03 -3.6601580632664E-02
   116  1.1500000000000E+00  4.7833875037664E-03 -2.9616779501490E-02
   117  1.1600000000000E+00  4.2543539223793E-03 -2.3344597635714E-02
   118  1.1700000000000E+00  3.6953748008237E-03 -1.8041029242800E-02
   119  1.1800000000000E+00  3.1237360898709E-03 -1.3614053533278E-02
   120  1.1900000000000E+00  2.5531913506241E-03 -9.9593681692418E-03
   121  1.2000000000000E+00  2.0158503905209E-03 -7.0396430809097E-03
   122  1.2100000000000E+00  1.5295747634652E-03 -4.7754957960275E-03
   123  1.2200000000000E+00  1.1076257205140E-03 -3.0821741174620E-03
   124  1.2300000000000E+00  7.5820686708433E-04 -1.8711069903599E-03
   125  1.2400000000000E+00  4.8446793874352E-04 -1.0527720109529E-03
   126  1.2500000000000E+00  2.8489579496341E-04 -5.4052679517532E-04
   127  1.2600000000000E+00  1.5338590105335E-04 -2.5330023141754E-04
   128  1.2700000000000E+00  7.8887373347959E-05 -1.1736493198545E-04
   129  1.2800000000000E+00  5.2652742016347E-05 -8.0333084264314E-05
   130  1.2900000000000E+00  4.8703701482186E-05 -7.9687552107155E-05
   131  1.3000000000000E+00  2.2959979948192E-05 -3.8531299350736E-05
   132  1.3100000000000E+00 -3.1635109022178E-06  5.3444588244672E-06
   133  1.3200000000000E+00 -2.4164082873398E-06  4.1056421662114E-06
   134  1.3300000000000E+00  1.0840125097379E-06 -1.8116693555005E-06
   135  1.3400000000000E+00 -2.9570630815628E-08  4.8728381737609E-08
   136  1.3500000000000E+00 -1.0639360038090E-07  1.7532219742363E-07
   137  1.3600000000000E+00  0.0000000000000E+00  0.0000000000000E+00
   138  1.3700000000000E+00  0.0000000000000E+00  0.0000000000000E+00
   139  1.3800000000000E+00  0.0000000000000E+00  0.0000000000000E+00
   140  1.3900000000000E+00  0.0000000000000E+00  0.0000000000000E+00
   141  1.4000000000000E+00  0.0000000000000E+00  0.0000000000000E+00
   142  1.4100000000000E+00  0.0000000000000E+00  0.0000000000000E+00
   143  1.4200000000000E+00  0.0000000000000E+00  0.0000000000000E+00
   144  1.4300000000000E+00  0.0000000000000E+00  0.0000000000000E+00
   145  1.4400000000000E+00  0.0000000000000E+00  0.0000000000000E+00
   146  1.4500000000000E+00  0.0000000000000E+00  0.0000000000000E+00
   147  1.4600000000000E+00  0.0000000000000E+00  0.0000000000000E+00
   148  1.4700000000000E+00  0.0000000000000E+00  0.0000000000000E+00
   149  1.4800000000000E+00  0.0000000000000E+00  0.0000000000000E+00
   150  1.4900000000000E+00  0.0000000000000E+00  0.0000000000000E+00
   151  1.5000000000000E+00  0.0000000000000E+00  0.0000000000000E+00
   152  1.5100000000000E+00  0.0000000000000E+00  0.0000000000000E+00
   153  1.5200000000000E+00  0.0000000000000E+00  0.0000000000000E+00
   154  1.5300000000000E+00  0.0000000000000E+00  0.0000000000000E+00
   155  1.5400000000000E+00  0.0000000000000E+00  0.0000000000000E+00
   156  1.5500000000000E+00  0.0000000000000E+00  0.0000000000000E+00
   157  1.5600000000000E+00  0.0000000000000E+00  0.0000000000000E+00
   158  1.5700000000000E+00  0.0000000000000E+00  0.0000000000000E+00
   159  1.5800000000000E+00  0.0000000000000E+00  0.0000000000000E+00
   160  1.5900000000000E+00  0.0000000000000E+00  0.0000000000000E+00
   161  1.6000000000000E+00  0.0000000000000E+00  0.0000000000000E+00
   162  1.6100000000000E+00  0.0000000000000E+00  0.0000000000000E+00
   163  1.6200000000000E+00  0.0000000000000E+00  0.0000000000000E+00
   164  1.6300000000000E+00  0.0000000000000E+00  0.0000000000000E+00
   165  1.6400000000000E+00  0.0000000000000E+00  0.0000000000000E+00
   166  1.6500000000000E+00  0.0000000000000E+00  0.0000000000000E+00
   167  1.6600000000000E+00  0.0000000000000E+00  0.0000000000000E+00
   168  1.6700000000000E+00  0.0000000000000E+00  0.0000000000000E+00
   169  1.6800000000000E+00  0.0000000000000E+00  0.0000000000000E+00
   170  1.6900000000000E+00  0.0000000000000E+00  0.0000000000000E+00
   171  1.7000000000000E+00  0.0000000000000E+00  0.0000000000000E+00
   172  1.7100000000000E+00  0.0000000000000E+00  0.0000000000000E+00
   173  1.7200000000000E+00  0.0000000000000E+00  0.0000000000000E+00
   174  1.7300000000000E+00  0.0000000000000E+00  0.0000000000000E+00
   175  1.7400000000000E+00  0.0000000000000E+00  0.0000000000000E+00
   176  1.7500000000000E+00  0.0000000000000E+00  0.0000000000000E+00
   177  1.7600000000000E+00  0.0000000000000E+00  0.0000000000000E+00
   178  1.7700000000000E+00  0.0000000000000E+00  0.0000000000000E+00
   179  1.7800000000000E+00  0.0000000000000E+00  0.0000000000000E+00
   180  1.7900000000000E+00  0.0000000000000E+00  0.0000000000000E+00
   181  1.8000000000000E+00  0.0000000000000E+00  0.0000000000000E+00
   182  1.8100000000000E+00  0.0000000000000E+00  0.0000000000000E+00
   183  1.8200000000000E+00  0.0000000000000E+00  0.0000000000000E+00
   184  1.8300000000000E+00  0.0000000000000E+00  0.0000000000000E+00
   185  1.8400000000000E+00  0.0000000000000E+00  0.0000000000000E+00
   186  1.8500000000000E+00  0.0000000000000E+00  0.0000000000000E+00
   187  1.8600000000000E+00  0.0000000000000E+00  0.0000000000000E+00
   188  1.8700000000000E+00  0.0000000000000E+00  0.0000000000000E+00
   189  1.8800000000000E+00  0.0000000000000E+00  0.0000000000000E+00
   190  1.8900000000000E+00  0.0000000000000E+00  0.0000000000000E+00
   191  1.9000000000000E+00  0.0000000000000E+00  0.0000000000000E+00
   192  1.9100000000000E+00  0.0000000000000E+00  0.0000000000000E+00
   193  1.9200000000000E+00  0.0000000000000E+00  0.0000000000000E+00
   194  1.9300000000000E+00  0.0000000000000E+00  0.0000000000000E+00
   195  1.9400000000000E+00  0.0000000000000E+00  0.0000000000000E+00
   196  1.9500000000000E+00  0.0000000000000E+00  0.0000000000000E+00
   197  1.9600000000000E+00  0.0000000000000E+00  0.0000000000000E+00
   198  1.9700000000000E+00  0.0000000000000E+00  0.0000000000000E+00
   199  1.9800000000000E+00  0.0000000000000E+00  0.0000000000000E+00
   200  1.9900000000000E+00  0.0000000000000E+00  0.0000000000000E+00
   201  2.0000000000000E+00  0.0000000000000E+00  0.0000000000000E+00
   202  2.0100000000000E+00  0.0000000000000E+00  0.0000000000000E+00
   203  2.0200000000000E+00  0.0000000000000E+00  0.0000000000000E+00
   204  2.0300000000000E+00  0.0000000000000E+00  0.0000000000000E+00
   205  2.0400000000000E+00  0.0000000000000E+00  0.0000000000000E+00
   206  2.0500000000000E+00  0.0000000000000E+00  0.0000000000000E+00
   207  2.0600000000000E+00  0.0000000000000E+00  0.0000000000000E+00
   208  2.0700000000000E+00  0.0000000000000E+00  0.0000000000000E+00
   209  2.0800000000000E+00  0.0000000000000E+00  0.0000000000000E+00
   210  2.0900000000000E+00  0.0000000000000E+00  0.0000000000000E+00
   211  2.1000000000000E+00  0.0000000000000E+00  0.0000000000000E+00
   212  2.1100000000000E+00  0.0000000000000E+00  0.0000000000000E+00
   213  2.1200000000000E+00  0.0000000000000E+00  0.0000000000000E+00
   214  2.1300000000000E+00  0.0000000000000E+00  0.0000000000000E+00
   215  2.1400000000000E+00  0.0000000000000E+00  0.0000000000000E+00
   216  2.1500000000000E+00  0.0000000000000E+00  0.0000000000000E+00
   217  2.1600000000000E+00  0.0000000000000E+00  0.0000000000000E+00
   218  2.1700000000000E+00  0.0000000000000E+00  0.0000000000000E+00
   219  2.1800000000000E+00  0.0000000000000E+00  0.0000000000000E+00
   220  2.1900000000000E+00  0.0000000000000E+00  0.0000000000000E+00
   221  2.2000000000000E+00  0.0000000000000E+00  0.0000000000000E+00
   222  2.2100000000000E+00  0.0000000000000E+00  0.0000000000000E+00
   223  2.2200000000000E+00  0.0000000000000E+00  0.0000000000000E+00
   224  2.2300000000000E+00  0.0000000000000E+00  0.0000000000000E+00
   225  2.2400000000000E+00  0.0000000000000E+00  0.0000000000000E+00
   226  2.2500000000000E+00  0.0000000000000E+00  0.0000000000000E+00
   227  2.2600000000000E+00  0.0000000000000E+00  0.0000000000000E+00
   228  2.2700000000000E+00  0.0000000000000E+00  0.0000000000000E+00
   229  2.2800000000000E+00  0.0000000000000E+00  0.0000000000000E+00
   230  2.2900000000000E+00  0.0000000000000E+00  0.0000000000000E+00
   231  2.3000000000000E+00  0.0000000000000E+00  0.0000000000000E+00
   232  2.3100000000000E+00  0.0000000000000E+00  0.0000000000000E+00
   233  2.3200000000000E+00  0.0000000000000E+00  0.0000000000000E+00
   234  2.3300000000000E+00  0.0000000000000E+00  0.0000000000000E+00
   235  2.3400000000000E+00  0.0000000000000E+00  0.0000000000000E+00
   236  2.3500000000000E+00  0.0000000000000E+00  0.0000000000000E+00
   237  2.3600000000000E+00  0.0000000000000E+00  0.0000000000000E+00
   238  2.3700000000000E+00  0.0000000000000E+00  0.0000000000000E+00
   239  2.3800000000000E+00  0.0000000000000E+00  0.0000000000000E+00
   240  2.3900000000000E+00  0.0000000000000E+00  0.0000000000000E+00
   241  2.4000000000000E+00  0.0000000000000E+00  0.0000000000000E+00
   242  2.4100000000000E+00  0.0000000000000E+00  0.0000000000000E+00
   243  2.4200000000000E+00  0.0000000000000E+00  0.0000000000000E+00
   244  2.4300000000000E+00  0.0000000000000E+00  0.0000000000000E+00
   245  2.4400000000000E+00  0.0000000000000E+00  0.0000000000000E+00
   246  2.4500000000000E+00  0.0000000000000E+00  0.0000000000000E+00
   247  2.4600000000000E+00  0.0000000000000E+00  0.0000000000000E+00
   248  2.4700000000000E+00  0.0000000000000E+00  0.0000000000000E+00
   249  2.4800000000000E+00  0.0000000000000E+00  0.0000000000000E+00
   250  2.4900000000000E+00  0.0000000000000E+00  0.0000000000000E+00
   251  2.5000000000000E+00  0.0000000000000E+00  0.0000000000000E+00
   252  2.5100000000000E+00  0.0000000000000E+00  0.0000000000000E+00
   253  2.5200000000000E+00  0.0000000000000E+00  0.0000000000000E+00
   254  2.5300000000000E+00  0.0000000000000E+00  0.0000000000000E+00
   255  2.5400000000000E+00  0.0000000000000E+00  0.0000000000000E+00
   256  2.5500000000000E+00  0.0000000000000E+00  0.0000000000000E+00
   257  2.5600000000000E+00  0.0000000000000E+00  0.0000000000000E+00
   258  2.5700000000000E+00  0.0000000000000E+00  0.0000000000000E+00
   259  2.5800000000000E+00  0.0000000000000E+00  0.0000000000000E+00
   260  2.5900000000000E+00  0.0000000000000E+00  0.0000000000000E+00
   261  2.6000000000000E+00  0.0000000000000E+00  0.0000000000000E+00
   262  2.6100000000000E+00  0.0000000000000E+00  0.0000000000000E+00
   263  2.6200000000000E+00  0.0000000000000E+00  0.0000000000000E+00
   264  2.6300000000000E+00  0.0000000000000E+00  0.0000000000000E+00
   265  2.6400000000000E+00  0.0000000000000E+00  0.0000000000000E+00
   266  2.6500000000000E+00  0.0000000000000E+00  0.0000000000000E+00
   267  2.6600000000000E+00  0.0000000000000E+00  0.0000000000000E+00
   268  2.6700000000000E+00  0.0000000000000E+00  0.0000000000000E+00
   269  2.6800000000000E+00  0.0000000000000E+00  0.0000000000000E+00
   270  2.6900000000000E+00  0.0000000000000E+00  0.0000000000000E+00
   271  2.7000000000000E+00  0.0000000000000E+00  0.0000000000000E+00
   272  2.7100000000000E+00  0.0000000000000E+00  0.0000000000000E+00
   273  2.7200000000000E+00  0.0000000000000E+00  0.0000000000000E+00
   274  2.7300000000000E+00  0.0000000000000E+00  0.0000000000000E+00
   275  2.7400000000000E+00  0.0000000000000E+00  0.0000000000000E+00
   276  2.7500000000000E+00  0.0000000000000E+00  0.0000000000000E+00
   277  2.7600000000000E+00  0.0000000000000E+00  0.0000000000000E+00
   278  2.7700000000000E+00  0.0000000000000E+00  0.0000000000000E+00
   279  2.7800000000000E+00  0.0000000000000E+00  0.0000000000000E+00
   280  2.7900000000000E+00  0.0000000000000E+00  0.0000000000000E+00
   281  2.8000000000000E+00  0.0000000000000E+00  0.0000000000000E+00
   282  2.8100000000000E+00  0.0000000000000E+00  0.0000000000000E+00
   283  2.8200000000000E+00  0.0000000000000E+00  0.0000000000000E+00
   284  2.8300000000000E+00  0.0000000000000E+00  0.0000000000000E+00
   285  2.8400000000000E+00  0.0000000000000E+00  0.0000000000000E+00
   286  2.8500000000000E+00  0.0000000000000E+00  0.0000000000000E+00
   287  2.8600000000000E+00  0.0000000000000E+00  0.0000000000000E+00
   288  2.8700000000000E+00  0.0000000000000E+00  0.0000000000000E+00
   289  2.8800000000000E+00  0.0000000000000E+00  0.0000000000000E+00
   290  2.8900000000000E+00  0.0000000000000E+00  0.0000000000000E+00
   291  2.9000000000000E+00  0.0000000000000E+00  0.0000000000000E+00
   292  2.9100000000000E+00  0.0000000000000E+00  0.0000000000000E+00
   293  2.9200000000000E+00  0.0000000000000E+00  0.0000000000000E+00
   294  2.9300000000000E+00  0.0000000000000E+00  0.0000000000000E+00
   295  2.9400000000000E+00  0.0000000000000E+00  0.0000000000000E+00
   296  2.9500000000000E+00  0.0000000000000E+00  0.0000000000000E+00
   297  2.9600000000000E+00  0.0000000000000E+00  0.0000000000000E+00
   298  2.9700000000000E+00  0.0000000000000E+00  0.0000000000000E+00
   299  2.9800000000000E+00  0.0000000000000E+00  0.0000000000000E+00
   300  2.9900000000000E+00  0.0000000000000E+00  0.0000000000000E+00
   301  3.0000000000000E+00  0.0000000000000E+00  0.0000000000000E+00
   302  3.0100000000000E+00  0.0000000000000E+00  0.0000000000000E+00
   303  3.0200000000000E+00  0.0000000000000E+00  0.0000000000000E+00
   304  3.0300000000000E+00  0.0000000000000E+00  0.0000000000000E+00
   305  3.0400000000000E+00  0.0000000000000E+00  0.0000000000000E+00
   306  3.0500000000000E+00  0.0000000000000E+00  0.0000000000000E+00
   307  3.0600000000000E+00  0.0000000000000E+00  0.0000000000000E+00
   308  3.0700000000000E+00  0.0000000000000E+00  0.0000000000000E+00
   309  3.0800000000000E+00  0.0000000000000E+00  0.0000000000000E+00
   310  3.0900000000000E+00  0.0000000000000E+00  0.0000000000000E+00
   311  3.1000000000000E+00  0.0000000000000E+00  0.0000000000000E+00
   312  3.1100000000000E+00  0.0000000000000E+00  0.0000000000000E+00
   313  3.1200000000000E+00  0.0000000000000E+00  0.0000000000000E+00
   314  3.1300000000000E+00  0.0000000000000E+00  0.0000000000000E+00
   315  3.1400000000000E+00  0.0000000000000E+00  0.0000000000000E+00
   316  3.1500000000000E+00  0.0000000000000E+00  0.0000000000000E+00
   317  3.1600000000000E+00  0.0000000000000E+00  0.0000000000000E+00
   318  3.1700000000000E+00  0.0000000000000E+00  0.0000000000000E+00
   319  3.1800000000000E+00  0.0000000000000E+00  0.0000000000000E+00
   320  3.1900000000000E+00  0.0000000000000E+00  0.0000000000000E+00
   321  3.2000000000000E+00  0.0000000000000E+00  0.0000000000000E+00
   322  3.2100000000000E+00  0.0000000000000E+00  0.0000000000000E+00
   323  3.2200000000000E+00  0.0000000000000E+00  0.0000000000000E+00
   324  3.2300000000000E+00  0.0000000000000E+00  0.0000000000000E+00
   325  3.2400000000000E+00  0.0000000000000E+00  0.0000000000000E+00
   326  3.2500000000000E+00  0.0000000000000E+00  0.0000000000000E+00
   327  3.2600000000000E+00  0.0000000000000E+00  0.0000000000000E+00
   328  3.2700000000000E+00  0.0000000000000E+00  0.0000000000000E+00
   329  3.2800000000000E+00  0.0000000000000E+00  0.0000000000000E+00
   330  3.2900000000000E+00  0.0000000000000E+00  0.0000000000000E+00
   331  3.3000000000000E+00  0.0000000000000E+00  0.0000000000000E+00
   332  3.3100000000000E+00  0.0000000000000E+00  0.0000000000000E+00
   333  3.3200000000000E+00  0.0000000000000E+00  0.0000000000000E+00
   334  3.3300000000000E+00  0.0000000000000E+00  0.0000000000000E+00
   335  3.3400000000000E+00  0.0000000000000E+00  0.0000000000000E+00
   336  3.3500000000000E+00  0.0000000000000E+00  0.0000000000000E+00
   337  3.3600000000000E+00  0.0000000000000E+00  0.0000000000000E+00
   338  3.3700000000000E+00  0.0000000000000E+00  0.0000000000000E+00
   339  3.3800000000000E+00  0.0000000000000E+00  0.0000000000000E+00
   340  3.3900000000000E+00  0.0000000000000E+00  0.0000000000000E+00
   341  3.4000000000000E+00  0.0000000000000E+00  0.0000000000000E+00
   342  3.4100000000000E+00  0.0000000000000E+00  0.0000000000000E+00
   343  3.4200000000000E+00  0.0000000000000E+00  0.0000000000000E+00
   344  3.4300000000000E+00  0.0000000000000E+00  0.0000000000000E+00
   345  3.4400000000000E+00  0.0000000000000E+00  0.0000000000000E+00
   346  3.4500000000000E+00  0.0000000000000E+00  0.0000000000000E+00
   347  3.4600000000000E+00  0.0000000000000E+00  0.0000000000000E+00
   348  3.4700000000000E+00  0.0000000000000E+00  0.0000000000000E+00
   349  3.4800000000000E+00  0.0000000000000E+00  0.0000000000000E+00
   350  3.4900000000000E+00  0.0000000000000E+00  0.0000000000000E+00
   351  3.5000000000000E+00  0.0000000000000E+00  0.0000000000000E+00
   352  3.5100000000000E+00  0.0000000000000E+00  0.0000000000000E+00
   353  3.5200000000000E+00  0.0000000000000E+00  0.0000000000000E+00
   354  3.5300000000000E+00  0.0000000000000E+00  0.0000000000000E+00
   355  3.5400000000000E+00  0.0000000000000E+00  0.0000000000000E+00
   356  3.5500000000000E+00  0.0000000000000E+00  0.0000000000000E+00
   357  3.5600000000000E+00  0.0000000000000E+00  0.0000000000000E+00
   358  3.5700000000000E+00  0.0000000000000E+00  0.0000000000000E+00
   359  3.5800000000000E+00  0.0000000000000E+00  0.0000000000000E+00
   360  3.5900000000000E+00  0.0000000000000E+00  0.0000000000000E+00
   361  3.6000000000000E+00  0.0000000000000E+00  0.0000000000000E+00
   362  3.6100000000000E+00  0.0000000000000E+00  0.0000000000000E+00
   363  3.6200000000000E+00  0.0000000000000E+00  0.0000000000000E+00
   364  3.6300000000000E+00  0.0000000000000E+00  0.0000000000000E+00
   365  3.6400000000000E+00  0.0000000000000E+00  0.0000000000000E+00
   366  3.6500000000000E+00  0.0000000000000E+00  0.0000000000000E+00
   367  3.6600000000000E+00  0.0000000000000E+00  0.0000000000000E+00
   368  3.6700000000000E+00  0.0000000000000E+00  0.0000000000000E+00
   369  3.6800000000000E+00  0.0000000000000E+00  0.0000000000000E+00
   370  3.6900000000000E+00  0.0000000000000E+00  0.0000000000000E+00
   371  3.7000000000000E+00  0.0000000000000E+00  0.0000000000000E+00
   372  3.7100000000000E+00  0.0000000000000E+00  0.0000000000000E+00
   373  3.7200000000000E+00  0.0000000000000E+00  0.0000000000000E+00
   374  3.7300000000000E+00  0.0000000000000E+00  0.0000000000000E+00
   375  3.7400000000000E+00  0.0000000000000E+00  0.0000000000000E+00
   376  3.7500000000000E+00  0.0000000000000E+00  0.0000000000000E+00
   377  3.7600000000000E+00  0.0000000000000E+00  0.0000000000000E+00
   378  3.7700000000000E+00  0.0000000000000E+00  0.0000000000000E+00
   379  3.7800000000000E+00  0.0000000000000E+00  0.0000000000000E+00
   380  3.7900000000000E+00  0.0000000000000E+00  0.0000000000000E+00
   381  3.8000000000000E+00  0.0000000000000E+00  0.0000000000000E+00
   382  3.8100000000000E+00  0.0000000000000E+00  0.0000000000000E+00
   383  3.8200000000000E+00  0.0000000000000E+00  0.0000000000000E+00
   384  3.8300000000000E+00  0.0000000000000E+00  0.0000000000000E+00
   385  3.8400000000000E+00  0.0000000000000E+00  0.0000000000000E+00
   386  3.8500000000000E+00  0.0000000000000E+00  0.0000000000000E+00
   387  3.8600000000000E+00  0.0000000000000E+00  0.0000000000000E+00
   388  3.8700000000000E+00  0.0000000000000E+00  0.0000000000000E+00
   389  3.8800000000000E+00  0.0000000000000E+00  0.0000000000000E+00
   390  3.8900000000000E+00  0.0000000000000E+00  0.0000000000000E+00
   391  3.9000000000000E+00  0.0000000000000E+00  0.0000000000000E+00
   392  3.9100000000000E+00  0.0000000000000E+00  0.0000000000000E+00
   393  3.9200000000000E+00  0.0000000000000E+00  0.0000000000000E+00
   394  3.9300000000000E+00  0.0000000000000E+00  0.0000000000000E+00
   395  3.9400000000000E+00  0.0000000000000E+00  0.0000000000000E+00
   396  3.9500000000000E+00  0.0000000000000E+00  0.0000000000000E+00
   397  3.9600000000000E+00  0.0000000000000E+00  0.0000000000000E+00
   398  3.9700000000000E+00  0.0000000000000E+00  0.0000000000000E+00
   399  3.9800000000000E+00  0.0000000000000E+00  0.0000000000000E+00
   400  3.9900000000000E+00  0.0000000000000E+00  0.0000000000000E+00
   401  4.0000000000000E+00  0.0000000000000E+00  0.0000000000000E+00
   402  4.0100000000000E+00  0.0000000000000E+00  0.0000000000000E+00
   403  4.0200000000000E+00  0.0000000000000E+00  0.0000000000000E+00
   404  4.0300000000000E+00  0.0000000000000E+00  0.0000000000000E+00
   405  4.0400000000000E+00  0.0000000000000E+00  0.0000000000000E+00
   406  4.0500000000000E+00  0.0000000000000E+00  0.0000000000000E+00
   407  4.0600000000000E+00  0.0000000000000E+00  0.0000000000000E+00
   408  4.0700000000000E+00  0.0000000000000E+00  0.0000000000000E+00
   409  4.0800000000000E+00  0.0000000000000E+00  0.0000000000000E+00
   410  4.0900000000000E+00  0.0000000000000E+00  0.0000000000000E+00
   411  4.1000000000000E+00  0.0000000000000E+00  0.0000000000000E+00
   412  4.1100000000000E+00  0.0000000000000E+00  0.0000000000000E+00
   413  4.1200000000000E+00  0.0000000000000E+00  0.0000000000000E+00
   414  4.1300000000000E+00  0.0000000000000E+00  0.0000000000000E+00
   415  4.1400000000000E+00  0.0000000000000E+00  0.0000000000000E+00
   416  4.1500000000000E+00  0.0000000000000E+00  0.0000000000000E+00
   417  4.1600000000000E+00  0.0000000000000E+00  0.0000000000000E+00
   418  4.1700000000000E+00  0.0000000000000E+00  0.0000000000000E+00
   419  4.1800000000000E+00  0.0000000000000E+00  0.0000000000000E+00
   420  4.1900000000000E+00  0.0000000000000E+00  0.0000000000000E+00
   421  4.2000000000000E+00  0.0000000000000E+00  0.0000000000000E+00
   422  4.2100000000000E+00  0.0000000000000E+00  0.0000000000000E+00
   423  4.2200000000000E+00  0.0000000000000E+00  0.0000000000000E+00