Ti    ONCVPSP-4.0.1  r_core=   2.47760   2.33374   2.27856
     22.0000     12.0000      190817    zatom,zion,pspd
     8       2   2     4   600     0    pspcod,pspxc,lmax,lloc,mmax,r2well
  5.99000000  0.00000000  0.00000000    rchrg fchrg qchrg
     2     2     2     0     0    nproj
     1     1           extension_switch
   0                         1.9841871804698E+00 -1.3485599243227E-01
     1  0.0000000000000E+00 -8.6664009302240E-12 -8.6870843851727E-11
     2  1.0000000000000E-02  5.1858808980582E-02  4.7911631989352E-02
     3  2.0000000000000E-02  1.0364091312250E-01  9.5639845666080E-02
     4  3.0000000000000E-02  1.5526976056484E-01  1.4300210387284E-01
     5  4.0000000000000E-02  2.0666910493778E-01  1.8981762739365E-01
     6  5.0000000000000E-02  2.5776315694933E-01  2.3590826302351E-01
     7  6.0000000000000E-02  3.0847673458758E-01  2.8109933861828E-01
     8  7.0000000000000E-02  3.5873541148730E-01  3.2522050088689E-01
     9  8.0000000000000E-02  4.0846566301823E-01  3.6810653177474E-01
    10  9.0000000000000E-02  4.5759500966330E-01  4.0959813939529E-01
    11  1.0000000000000E-01  5.0605215726772E-01  4.4954271959431E-01
    12  1.1000000000000E-01  5.5376713375451E-01  4.8779508437969E-01
    13  1.2000000000000E-01  6.0067142191881E-01  5.2421815361620E-01
    14  1.3000000000000E-01  6.4669808793141E-01  5.5868360656968E-01
    15  1.4000000000000E-01  6.9178190520188E-01  5.9107249008754E-01
    16  1.5000000000000E-01  7.3585947327334E-01  6.2127578042083E-01
    17  1.6000000000000E-01  7.7886933144364E-01  6.4919489592680E-01
    18  1.7000000000000E-01  8.2075206683175E-01  6.7474215813869E-01
    19  1.8000000000000E-01  8.6145041663367E-01  6.9784119894989E-01
    20  1.9000000000000E-01  9.0090936433823E-01  7.1842731193129E-01
    21  2.0000000000000E-01  9.3907622970019E-01  7.3644774608290E-01
    22  2.1000000000000E-01  9.7590075229573E-01  7.5186194061142E-01
    23  2.2000000000000E-01  1.0113351685139E+00  7.6464169962300E-01
    24  2.3000000000000E-01  1.0453342818656E+00  7.7477130592443E-01
    25  2.4000000000000E-01  1.0778555265208E+00  7.8224757343333E-01
    26  2.5000000000000E-01  1.1088590240138E+00  7.8707983800853E-01
    27  2.6000000000000E-01  1.1383076330826E+00  7.8928988682299E-01
    28  2.7000000000000E-01  1.1661669926413E+00  7.8891182671236E-01
    29  2.8000000000000E-01  1.1924055579061E+00  7.8599189224110E-01
    30  2.9000000000000E-01  1.2169946297275E+00  7.8058819453272E-01
    31  3.0000000000000E-01  1.2399083772051E+00  7.7277041221036E-01
    32  3.1000000000000E-01  1.2611238536878E+00  7.6261942608664E-01
    33  3.2000000000000E-01  1.2806210062838E+00  7.5022689952586E-01
    34  3.3000000000000E-01  1.2983826790330E+00  7.3569480667623E-01
    35  3.4000000000000E-01  1.3143946099088E+00  7.1913491103268E-01
    36  3.5000000000000E-01  1.3286454218434E+00  7.0066819704161E-01
    37  3.6000000000000E-01  1.3411266079841E+00  6.8042425769494E-01
    38  3.7000000000000E-01  1.3518325114079E+00  6.5854064128211E-01
    39  3.8000000000000E-01  1.3607602995343E+00  6.3516216067363E-01
    40  3.9000000000000E-01  1.3679099334920E+00  6.1044016869667E-01
    41  4.0000000000000E-01  1.3732841327049E+00  5.8453180333159E-01
    42  4.1000000000000E-01  1.3768883349715E+00  5.5759920660847E-01
    43  4.2000000000000E-01  1.3787306523212E+00  5.2980872121002E-01
    44  4.3000000000000E-01  1.3788218229345E+00  5.0133006889682E-01
    45  4.4000000000000E-01  1.3771751594184E+00  4.7233551495581E-01
    46  4.5000000000000E-01  1.3738064937293E+00  4.4299902293800E-01
    47  4.6000000000000E-01  1.3687341190348E+00  4.1349540399282E-01
    48  4.7000000000000E-01  1.3619787288042E+00  3.8399946512586E-01
    49  4.8000000000000E-01  1.3535633534117E+00  3.5468516070255E-01
    50  4.9000000000000E-01  1.3435132945302E+00  3.2572475149437E-01
    51  5.0000000000000E-01  1.3318560575878E+00  2.9728797551440E-01
    52  5.1000000000000E-01  1.3186212825443E+00  2.6954123481729E-01
    53  5.2000000000000E-01  1.3038406732404E+00  2.4264680234508E-01
    54  5.3000000000000E-01  1.2875479255529E+00  2.1676205278432E-01
    55  5.4000000000000E-01  1.2697786545806E+00  1.9203872126380E-01
    56  5.5000000000000E-01  1.2505703210656E+00  1.6862219356472E-01
    57  5.6000000000000E-01  1.2299621572431E+00  1.4665083133929E-01
    58  5.7000000000000E-01  1.2079950922904E+00  1.2625533563852E-01
    59  5.8000000000000E-01  1.1847116775333E+00  1.0755815183748E-01
    60  5.9000000000000E-01  1.1601560115441E+00  9.0672918818129E-02
    61  6.0000000000000E-01  1.1343736652508E+00  7.5703965025079E-02
    62  6.1000000000000E-01  1.1074116071547E+00  6.2745853753222E-02
    63  6.2000000000000E-01  1.0793181287365E+00  5.1882979755635E-02
    64  6.3000000000000E-01  1.0501427701109E+00  4.3189218979764E-02
    65  6.4000000000000E-01  1.0199362459693E+00  3.6727632949847E-02
    66  6.5000000000000E-01  9.8875037183500E-01  3.2550229016468E-02
    67  6.6000000000000E-01  9.5663799063415E-01  3.0697777389922E-02
    68  6.7000000000000E-01  9.2365289957019E-01  3.1199685566949E-02
    69  6.8000000000000E-01  8.8984977727355E-01  3.4073930449703E-02
    70  6.9000000000000E-01  8.5528411118230E-01  3.9327048144715E-02
    71  7.0000000000000E-01  8.2001212509652E-01  4.6954181119646E-02
    72  7.1000000000000E-01  7.8409070683619E-01  5.6939182088090E-02
    73  7.2000000000000E-01  7.4757733592171E-01  6.9254773689496E-02
    74  7.3000000000000E-01  7.1053001118679E-01  8.3862762734921E-02
    75  7.4000000000000E-01  6.7300717822571E-01  1.0071430750005E-01
    76  7.5000000000000E-01  6.3506765657148E-01  1.1975023626746E-01
    77  7.6000000000000E-01  5.9677056649711E-01  1.4090141505241E-01
    78  7.7000000000000E-01  5.5817525533072E-01  1.6408916218970E-01
    79  7.8000000000000E-01  5.1934122317472E-01  1.8922570721875E-01
    80  7.9000000000000E-01  4.8032804792195E-01  2.1621469127703E-01
    81  8.0000000000000E-01  4.4119530946518E-01  2.4495170600289E-01
    82  8.1000000000000E-01  4.0200251300287E-01  2.7532486775785E-01
    83  8.2000000000000E-01  3.6280901135205E-01  3.0721542380495E-01
    84  8.3000000000000E-01  3.2367392618927E-01  3.4049838692862E-01
    85  8.4000000000000E-01  2.8465606815253E-01  3.7504319484854E-01
    86  8.5000000000000E-01  2.4581385575100E-01  4.1071439067110E-01
    87  8.6000000000000E-01  2.0720523304475E-01  4.4737232053326E-01
    88  8.7000000000000E-01  1.6888758607404E-01  4.8487384452876E-01
    89  8.8000000000000E-01  1.3091765803639E-01  5.2307305696377E-01
    90  8.9000000000000E-01  9.3351463229535E-02  5.6182201197045E-01
    91  9.0000000000000E-01  5.6244199800147E-02  6.0097145050982E-01
    92  9.1000000000000E-01  1.9650161359982E-02  6.4037152482297E-01
    93  9.2000000000000E-01 -1.6377352445153E-02  6.7987251643893E-01
    94  9.3000000000000E-01 -5.1786126304500E-02  7.1932554391957E-01
    95  9.4000000000000E-01 -8.6525120415837E-02  7.5858325661667E-01
    96  9.5000000000000E-01 -1.2054456230500E-01  7.9750051083028E-01
    97  9.6000000000000E-01 -1.5379603910810E-01  8.3593502489457E-01
    98  9.7000000000000E-01 -1.8623259010845E-01  8.7374800987235E-01
    99  9.8000000000000E-01 -2.1780879929583E-01  9.1080477271284E-01
   100  9.9000000000000E-01 -2.4848088769175E-01  9.4697528891955E-01
   101  1.0000000000000E+00 -2.7820680516161E-01  9.8213474198226E-01
   102  1.0100000000000E+00 -3.0694632141219E-01  1.0161640270495E+00
   103  1.0200000000000E+00 -3.3466111585263E-01  1.0489502165539E+00
   104  1.0300000000000E+00 -3.6131486597709E-01  1.0803869857508E+00
   105  1.0400000000000E+00 -3.8687333390999E-01  1.1103749963883E+00
   106  1.0500000000000E+00 -4.1130445073861E-01  1.1388222369937E+00
   107  1.0600000000000E+00 -4.3457839824397E-01  1.1656443185366E+00
   108  1.0700000000000E+00 -4.5666768762915E-01  1.1907647245051E+00
   109  1.0800000000000E+00 -4.7754723483505E-01  1.2141150147183E+00
   110  1.0900000000000E+00 -4.9719443202651E-01  1.2356349824791E+00
   111  1.1000000000000E+00 -5.1558921482772E-01  1.2552727649591E+00
   112  1.1100000000000E+00 -5.3271412488417E-01  1.2729849069871E+00
   113  1.1200000000000E+00 -5.4855436733012E-01  1.2887363786957E+00
   114  1.1300000000000E+00 -5.6309786274435E-01  1.3025005477521E+00
   115  1.1400000000000E+00 -5.7633529318479E-01  1.3142591071670E+00
   116  1.1500000000000E+00 -5.8826014190248E-01  1.3240019599358E+00
   117  1.1600000000000E+00 -5.9886872634884E-01  1.3317270620144E+00
   118  1.1700000000000E+00 -6.0816022410638E-01  1.3374402253693E+00
   119  1.1800000000000E+00 -6.1613669139247E-01  1.3411548830669E+00
   120  1.1900000000000E+00 -6.2280307380769E-01  1.3428918185772E+00
   121  1.2000000000000E+00 -6.2816720902560E-01  1.3426788616628E+00
   122  1.2100000000000E+00 -6.3223982114837E-01  1.3405505534017E+00
   123  1.2200000000000E+00 -6.3503450648317E-01  1.3365477830554E+00
   124  1.2300000000000E+00 -6.3656771052706E-01  1.3307173996364E+00
   125  1.2400000000000E+00 -6.3685869598326E-01  1.3231118011513E+00
   126  1.2500000000000E+00 -6.3592950166917E-01  1.3137885046046E+00
   127  1.2600000000000E+00 -6.3380489221536E-01  1.3028096999284E+00
   128  1.2700000000000E+00 -6.3051229849592E-01  1.2902417910700E+00
   129  1.2800000000000E+00 -6.2608174877311E-01  1.2761549275116E+00
   130  1.2900000000000E+00 -6.2054579058218E-01  1.2606225295210E+00
   131  1.3000000000000E+00 -6.1393940342748E-01  1.2437208104324E+00
   132  1.3100000000000E+00 -6.0629990240578E-01  1.2255282992393E+00
   133  1.3200000000000E+00 -5.9766683291827E-01  1.2061253667450E+00
   134  1.3300000000000E+00 -5.8808185667849E-01  1.1855937584566E+00
   135  1.3400000000000E+00 -5.7758862926889E-01  1.1640161373342E+00
   136  1.3500000000000E+00 -5.6623266954356E-01  1.1414756394094E+00
   137  1.3600000000000E+00 -5.5406122121881E-01  1.1180554451808E+00
   138  1.3700000000000E+00 -5.4112310703622E-01  1.0938383695596E+00
   139  1.3800000000000E+00 -5.2746857592462E-01  1.0689064730000E+00
   140  1.3900000000000E+00 -5.1314914362695E-01  1.0433406962886E+00
   141  1.4000000000000E+00 -4.9821742729603E-01  1.0172205212980E+00
   142  1.4100000000000E+00 -4.8272697459891E-01  9.9062365982471E-01
   143  1.4200000000000E+00 -4.6673208790244E-01  9.6362577244293E-01
   144  1.4300000000000E+00 -4.5028764414298E-01  9.3630021909969E-01
   145  1.4400000000000E+00 -4.3344891101061E-01  9.0871784297017E-01
   146  1.4500000000000E+00 -4.1627136010190E-01  8.8094678887653E-01
   147  1.4600000000000E+00 -3.9881047771633E-01  8.5305235735285E-01
   148  1.4700000000000E+00 -3.8112157398809E-01  8.2509689521688E-01
   149  1.4800000000000E+00 -3.6325959105857E-01  7.9713972328454E-01
   150  1.4900000000000E+00 -3.4527891100384E-01  7.6923710163912E-01
   151  1.5000000000000E+00 -3.2723316423729E-01  7.4144223264400E-01
   152  1.5100000000000E+00 -3.0917503910852E-01  7.1380530166787E-01
   153  1.5200000000000E+00 -2.9115609341695E-01  6.8637355527622E-01
   154  1.5300000000000E+00 -2.7322656855194E-01  6.5919141643221E-01
   155  1.5400000000000E+00 -2.5543520695969E-01  6.3230063604740E-01
   156  1.5500000000000E+00 -2.3782907362262E-01  6.0574048002799E-01
   157  1.5600000000000E+00 -2.2045338221748E-01  5.7954795077652E-01
   158  1.5700000000000E+00 -2.0335132659538E-01  5.5375804193384E-01
   159  1.5800000000000E+00 -1.8656391820027E-01  5.2840402498204E-01
   160  1.5900000000000E+00 -1.7012983001158E-01  5.0351776617776E-01
   161  1.6000000000000E+00 -1.5408524756293E-01  4.7913007214591E-01
   162  1.6100000000000E+00 -1.3846372755132E-01  4.5527106233930E-01
   163  1.6200000000000E+00 -1.2329606451092E-01  4.3197056645786E-01
   164  1.6300000000000E+00 -1.0861016597294E-01  4.0925854490837E-01
   165  1.6400000000000E+00 -9.4430936742918E-02  3.8716552792631E-01
   166  1.6500000000000E+00 -8.0780170815694E-02  3.6572308833311E-01
   167  1.6600000000000E+00 -6.7676502638792E-02  3.4496386351873E-01
   168  1.6700000000000E+00 -5.5135760699163E-02  3.2491800934905E-01
   169  1.6800000000000E+00 -4.3171349160470E-02  3.0560983196754E-01
   170  1.6900000000000E+00 -3.1794290348018E-02  2.8705785858529E-01
   171  1.7000000000000E+00 -2.1013248084214E-02  2.6927517696343E-01
   172  1.7100000000000E+00 -1.0834558328627E-02  2.5226978702243E-01
   173  1.7200000000000E+00 -1.2622676710548E-03  2.3604495626395E-01
   174  1.7300000000000E+00  7.7018203928969E-03  2.2059957661941E-01
   175  1.7400000000000E+00  1.6058091578732E-02  2.0592852093294E-01
   176  1.7500000000000E+00  2.3809059523098E-02  1.9202299717870E-01
   177  1.7600000000000E+00  3.0959297331529E-02  1.7887089860135E-01
   178  1.7700000000000E+00  3.7515362250848E-02  1.6645714806521E-01
   179  1.7800000000000E+00  4.3485713794110E-02  1.5476403500200E-01
   180  1.7900000000000E+00  4.8880625684936E-02  1.4377154346022E-01
   181  1.8000000000000E+00  5.3712092024905E-02  1.3345766987589E-01
   182  1.8100000000000E+00  5.7993728122060E-02  1.2379872930804E-01
   183  1.8200000000000E+00  6.1740666450408E-02  1.1476964900876E-01
   184  1.8300000000000E+00  6.4969448239205E-02  1.0634424832757E-01
   185  1.8400000000000E+00  6.7697911216796E-02  9.8495504081650E-02
   186  1.8500000000000E+00  6.9945074056442E-02  9.1195800655912E-02
   187  1.8600000000000E+00  7.1731018090953E-02  8.4417164229894E-02
   188  1.8700000000000E+00  7.3076766878861E-02  7.8131480659935E-02
   189  1.8800000000000E+00  7.4004164217105E-02  7.2310696675114E-02
   190  1.8900000000000E+00  7.4535751203810E-02  6.6927004172453E-02
   191  1.9000000000000E+00  7.4694642959693E-02  6.1953007519340E-02
   192  1.9100000000000E+00  7.4504405617658E-02  5.7361873892371E-02
   193  1.9200000000000E+00  7.3988934187506E-02  5.3127466793508E-02
   194  1.9300000000000E+00  7.3172331896207E-02  4.9224462993744E-02
   195  1.9400000000000E+00  7.2078791594054E-02  4.5628453255889E-02
   196  1.9500000000000E+00  7.0732479803157E-02  4.2316027282679E-02
   197  1.9600000000000E+00  6.9157423967308E-02  3.9264843424072E-02
   198  1.9700000000000E+00  6.7377403441122E-02  3.6453683756890E-02
   199  1.9800000000000E+00  6.5415844733037E-02  3.3862495220234E-02
   200  1.9900000000000E+00  6.3295721488057E-02  3.1472417555239E-02
   201  2.0000000000000E+00  6.1039459666707E-02  2.9265798849697E-02
   202  2.0100000000000E+00  5.8668848343114E-02  2.7226199534667E-02
   203  2.0200000000000E+00  5.6204956509601E-02  2.5338385716637E-02
   204  2.0300000000000E+00  5.3668056235952E-02  2.3588312756728E-02
   205  2.0400000000000E+00  5.1077552493769E-02  2.1963100027431E-02
   206  2.0500000000000E+00  4.8451919911513E-02  2.0450997788998E-02
   207  2.0600000000000E+00  4.5808646683621E-02  1.9041347129440E-02
   208  2.0700000000000E+00  4.3164185812150E-02  1.7724533907082E-02
   209  2.0800000000000E+00  4.0533913813029E-02  1.6491937621478E-02
   210  2.0900000000000E+00  3.7932096972168E-02  1.5335876117789E-02
   211  2.1000000000000E+00  3.5371865192256E-02  1.4249547005368E-02
   212  2.1100000000000E+00  3.2865193419608E-02  1.3226966634581E-02
   213  2.1200000000000E+00  3.0422890597390E-02  1.2262907439849E-02
   214  2.1300000000000E+00  2.8054596043412E-02  1.1352834411585E-02
   215  2.1400000000000E+00  2.5768783105455E-02  1.0492841410945E-02
   216  2.1500000000000E+00  2.3572769905369E-02  9.6795879930277E-03
   217  2.1600000000000E+00  2.1472736935380E-02  8.9102373416645E-03
   218  2.1700000000000E+00  1.9473751233526E-02  8.1823958667746E-03
   219  2.1800000000000E+00  1.7579796822494E-02  7.4940549496776E-03
   220  2.1900000000000E+00  1.5793811063690E-02  6.8435352681194E-03
   221  2.2000000000000E+00  1.4117726539211E-02  6.2294340627689E-03
   222  2.2100000000000E+00  1.2552518045035E-02  5.6505756481184E-03
   223  2.2200000000000E+00  1.1098254249341E-02  5.1059654078178E-03
   224  2.2300000000000E+00  9.7541535452912E-03  4.5947474566543E-03
   225  2.2400000000000E+00  8.5186436041918E-03  4.1161660921649E-03
   226  2.2500000000000E+00  7.3894241149373E-03  3.6695310979849E-03
   227  2.2600000000000E+00  6.3635321816769E-03  3.2541869108873E-03
   228  2.2700000000000E+00  5.4374098395635E-03  2.8694856129529E-03
   229  2.2800000000000E+00  4.6069731394494E-03  2.5147636652246E-03
   230  2.2900000000000E+00  3.8676822477609E-03  2.1893222494623E-03
   231  2.3000000000000E+00  3.2146120085063E-03  1.8924110503790E-03
   232  2.3100000000000E+00  2.6425226583583E-03  1.6232186197809E-03
   233  2.3200000000000E+00  2.1459284146925E-03  1.3808451994505E-03
   234  2.3300000000000E+00  1.7191677340735E-03  1.1643177770639E-03
   235  2.3400000000000E+00  1.3564729436325E-03  9.7261621510602E-04
   236  2.3500000000000E+00  1.0520255725285E-03  8.0456508074773E-04
   237  2.3600000000000E+00  7.9993207271097E-04  6.5759358285949E-04
   238  2.3700000000000E+00  5.9424724190651E-04  5.2718709427069E-04
   239  2.3800000000000E+00  4.2943096386055E-04  4.1244372983223E-04
   240  2.3900000000000E+00  3.0022221032478E-04  3.1373803451175E-04
   241  2.4000000000000E+00  2.0152613945051E-04  2.3058035871618E-04
   242  2.4100000000000E+00  1.2851341322025E-04  1.6235125501594E-04
   243  2.4200000000000E+00  7.6647253373556E-05  1.0815600763588E-04
   244  2.4300000000000E+00  4.1719965898560E-05  6.6872279995383E-05
   245  2.4400000000000E+00  1.9879144366091E-05  3.7157176714251E-05
   246  2.4500000000000E+00  7.6592756896414E-06  1.7436201267827E-05
   247  2.4600000000000E+00  1.9815745694040E-06  5.9876362960878E-06
   248  2.4700000000000E+00  1.8483266292072E-07  1.0527453166538E-06
   249  2.4800000000000E+00 -5.2379567752561E-09 -9.3548453939151E-08
   250  2.4900000000000E+00  5.3052653577157E-09 -4.1149064756960E-08
   251  2.50  0.  0.
   252  2.51 -0. -0.
   253  2.52 -0. -0.
   254  2.53 -0. -0.
   255  2.54  0.  0.
   256  2.55  0.  0.
   257  2.56  0.  0.
   258  2.57  0.  0.
   259  2.58  0.  0.
   260  2.59  0.  0.
   261  2.60  0.  0.
   262  2.61  0.  0.
   263  2.62  0.  0.
   264  2.63  0.  0.
   265  2.64  0.  0.
   266  2.65  0.  0.
   267  2.66  0.  0.
   268  2.67  0.  0.
   269  2.68  0.  0.
   270  2.69  0.  0.
   271  2.70  0.  0.
   272  2.71  0.  0.
   273  2.72  0.  0.
   274  2.73  0.  0.
   275  2.74  0.  0.
   276  2.75  0.  0.
   277  2.76  0.  0.
   278  2.77  0.  0.
   279  2.78  0.  0.
   280  2.79  0.  0.
   281  2.80  0.  0.
   282  2.81  0.  0.
   283  2.82  0.  0.
   284  2.83  0.  0.
   285  2.84  0.  0.
   286  2.85  0.  0.
   287  2.86  0.  0.
   288  2.87  0.  0.
   289  2.88  0.  0.
   290  2.89  0.  0.
   291  2.90  0.  0.
   292  2.91  0.  0.
   293  2.92  0.  0.
   294  2.93  0.  0.
   295  2.94  0.  0.
   296  2.95  0.  0.
   297  2.96  0.  0.
   298  2.97  0.  0.
   299  2.98  0.  0.
   300  2.99  0.  0.
   301  3.00  0.  0.
   302  3.01  0.  0.
   303  3.02  0.  0.
   304  3.03  0.  0.
   305  3.04  0.  0.
   306  3.05  0.  0.
   307  3.06  0.  0.
   308  3.07  0.  0.
   309  3.08  0.  0.
   310  3.09  0.  0.
   311  3.10  0.  0.
   312  3.11  0.  0.
   313  3.12  0.  0.
   314  3.13  0.  0.
   315  3.14  0.  0.
   316  3.15  0.  0.
   317  3.16  0.  0.
   318  3.17  0.  0.
   319  3.18  0.  0.
   320  3.19  0.  0.
   321  3.20  0.  0.
   322  3.21  0.  0.
   323  3.22  0.  0.
   324  3.23  0.  0.
   325  3.24  0.  0.
   326  3.25  0.  0.
   327  3.26  0.  0.
   328  3.27  0.  0.
   329  3.28  0.  0.
   330  3.29  0.  0.
   331  3.30  0.  0.
   332  3.31  0.  0.
   333  3.32  0.  0.
   334  3.33  0.  0.
   335  3.34  0.  0.
   336  3.35  0.  0.
   337  3.36  0.  0.
   338  3.37  0.  0.
   339  3.38  0.  0.
   340  3.39  0.  0.
   341  3.40  0.  0.
   342  3.41  0.  0.
   343  3.42  0.  0.
   344  3.43  0.  0.
   345  3.44  0.  0.
   346  3.45  0.  0.
   347  3.46  0.  0.
   348  3.47  0.  0.
   349  3.48  0.  0.
   350  3.49  0.  0.
   351  3.50  0.  0.
   352  3.51  0.  0.
   353  3.52  0.  0.
   354  3.53  0.  0.
   355  3.54  0.  0.
   356  3.55  0.  0.
   357  3.56  0.  0.
   358  3.57  0.  0.
   359  3.58  0.  0.
   360  3.59  0.  0.
   361  3.60  0.  0.
   362  3.61  0.  0.
   363  3.62  0.  0.
   364  3.63  0.  0.
   365  3.64  0.  0.
   366  3.65  0.  0.
   367  3.66  0.  0.
   368  3.67  0.  0.
   369  3.68  0.  0.
   370  3.69  0.  0.
   371  3.70  0.  0.
   372  3.71  0.  0.
   373  3.72  0.  0.
   374  3.73  0.  0.
   375  3.74  0.  0.
   376  3.75  0.  0.
   377  3.76  0.  0.
   378  3.77  0.  0.
   379  3.78  0.  0.
   380  3.79  0.  0.
   381  3.80  0.  0.
   382  3.81  0.  0.
   383  3.82  0.  0.
   384  3.83  0.  0.
   385  3.84  0.  0.
   386  3.85  0.  0.
   387  3.86  0.  0.
   388  3.87  0.  0.
   389  3.88  0.  0.
   390  3.89  0.  0.
   391  3.90  0.  0.
   392  3.91  0.  0.
   393  3.92  0.  0.
   394  3.93  0.  0.
   395  3.94  0.  0.
   396  3.95  0.  0.
   397  3.96  0.  0.
   398  3.97  0.  0.
   399  3.98  0.  0.
   400  3.99  0.  0.
   401  4.00  0.  0.
   402  4.01  0.  0.
   403  4.02  0.  0.
   404  4.03  0.  0.
   405  4.04  0.  0.
   406  4.05  0.  0.
   407  4.06  0.  0.
   408  4.07  0.  0.
   409  4.08  0.  0.
   410  4.09  0.  0.
   411  4.10  0.  0.
   412  4.11  0.  0.
   413  4.12  0.  0.
   414  4.13  0.  0.
   415  4.14  0.  0.
   416  4.15  0.  0.
   417  4.16  0.  0.
   418  4.17  0.  0.
   419  4.18  0.  0.
   420  4.19  0.  0.
   421  4.20  0.  0.
   422  4.21  0.  0.
   423  4.22  0.  0.
   424  4.23  0.  0.
   425  4.24  0.  0.
   426  4.25  0.  0.
   427  4.26  0.  0.
   428  4.27  0.  0.
   429  4.28  0.  0.
   430  4.29  0.  0.
   431  4.30  0.  0.
   432  4.31  0.  0.
   433  4.32  0.  0.
   434  4.33  0.  0.
   435  4.34  0.  0.
   436  4.35  0.  0.
   437  4.36  0.  0.
   438  4.37  0.  0.
   439  4.38  0.  0.
   440  4.39  0.  0.
   441  4.40  0.  0.
   442  4.41  0.  0.
   443  4.42  0.  0.
   444  4.43  0.  0.
   445  4.44  0.  0.
   446  4.45  0.  0.
   447  4.46  0.  0.
   448  4.47  0.  0.
   449  4.48  0.  0.
   450  4.49  0.  0.
   451  4.50  0.  0.
   452  4.51  0.  0.
   453  4.52  0.  0.
   454  4.53  0.  0.
   455  4.54  0.  0.
   456  4.55  0.  0.
   457  4.56  0.  0.
   458  4.57  0.  0.
   459  4.58  0.  0.
   460  4.59  0.  0.
   461  4.60  0.  0.
   462  4.61  0.  0.
   463  4.62  0.  0.
   464  4.63  0.  0.
   465  4.64  0.  0.
   466  4.65  0.  0.
   467  4.66  0.  0.
   468  4.67  0.  0.
   469  4.68  0.  0.
   470  4.69  0.  0.
   471  4.70  0.  0.
   472  4.71  0.  0.
   473  4.72  0.  0.
   474  4.73  0.  0.
   475  4.74  0.  0.
   476  4.75  0.  0.
   477  4.76  0.  0.
   478  4.77  0.  0.
   479  4.78  0.  0.
   480  4.79  0.  0.
   481  4.80  0.  0.
   482  4.81  0.  0.
   483  4.82  0.  0.
   484  4.83  0.  0.
   485  4.84  0.  0.
   486  4.85  0.  0.
   487  4.86  0.  0.
   488  4.87  0.  0.
   489  4.88  0.  0.
   490  4.89  0.  0.
   491  4.90  0.  0.
   492  4.91  0.  0.
   493  4.92  0.  0.
   494  4.93  0.  0.
   495  4.94  0.  0.
   496  4.95  0.  0.
   497  4.96  0.  0.
   498  4.97  0.  0.
   499  4.98  0.  0.
   500  4.99  0.  0.
   501  5.00  0.  0.
   502  5.01  0.  0.
   503  5.02  0.  0.
   504  5.03  0.  0.
   505  5.04  0.  0.
   506  5.05  0.  0.
   507  5.06  0.  0.
   508  5.07  0.  0.
   509  5.08  0.  0.
   510  5.09  0.  0.
   511  5.10  0.  0.
   512  5.11  0.  0.
   513  5.12  0.  0.
   514  5.13  0.  0.
   515  5.14  0.  0.
   516  5.15  0.  0.
   517  5.16  0.  0.
   518  5.17  0.  0.
   519  5.18  0.  0.
   520  5.19  0.  0.
   521  5.20  0.  0.
   522  5.21  0.  0.
   523  5.22  0.  0.
   524  5.23  0.  0.
   525  5.24  0.  0.
   526  5.25  0.  0.
   527  5.26  0.  0.
   528  5.27  0.  0.
   529  5.28  0.  0.
   530  5.29  0.  0.
   531  5.30  0.  0.
   532  5.31  0.  0.
   533  5.32  0.  0.
   534  5.33  0.  0.
   535  5.34  0.  0.
   536  5.35  0.  0.
   537  5.36  0.  0.
   538  5.37  0.  0.
   539  5.38  0.  0.
   540  5.39  0.  0.
   541  5.40  0.  0.
   542  5.41  0.  0.
   543  5.42  0.  0.
   544  5.43  0.  0.
   545  5.44  0.  0.
   546  5.45  0.  0.
   547  5.46  0.  0.
   548  5.47  0.  0.
   549  5.48  0.  0.
   550  5.49  0.  0.
   551  5.50  0.  0.
   552  5.51  0.  0.
   553  5.52  0.  0.
   554  5.53  0.  0.
   555  5.54  0.  0.
   556  5.55  0.  0.
   557  5.56  0.  0.
   558  5.57  0.  0.
   559  5.58  0.  0.
   560  5.59  0.  0.
   561  5.60  0.  0.
   562  5.61  0.  0.
   563  5.62  0.  0.
   564  5.63  0.  0.
   565  5.64  0.  0.
   566  5.65  0.  0.
   567  5.66  0.  0.
   568  5.67  0.  0.
   569  5.68  0.  0.
   570  5.69  0.  0.
   571  5.70  0.  0.
   572  5.71  0.  0.
   573  5.72  0.  0.
   574  5.73  0.  0.
   575  5.74  0.  0.
   576  5.75  0.  0.
   577  5.76  0.  0.
   578  5.77  0.  0.
   579  5.78  0.  0.
   580  5.79  0.  0.
   581  5.80  0.  0.
   582  5.81  0.  0.
   583  5.82  0.  0.
   584  5.83  0.  0.
   585  5.84  0.  0.
   586  5.85  0.  0.
   587  5.86  0.  0.
   588  5.87  0.  0.
   589  5.88  0.  0.
   590  5.89  0.  0.
   591  5.90  0.  0.
   592  5.91  0.  0.
   593  5.92  0.  0.
   594  5.93  0.  0.
   595  5.94  0.  0.
   596  5.95  0.  0.
   597  5.96  0.  0.
   598  5.97  0.  0.
   599  5.98  0.  0.
   600  5.99  0.  0.
   1                        -1.2616840876919E+00 -2.9667609569346E-01
     1  0.0000000000000E+00  5.3458751314572E-11 -4.0293774219990E-10
     2  1.0000000000000E-02  4.9714277342829E-04 -3.7146784469991E-04
     3  2.0000000000000E-02  1.9877802149222E-03 -1.4835779474314E-03
     4  3.0000000000000E-02  4.4695425931946E-03 -3.3294712110781E-03
     5  4.0000000000000E-02  7.9384900106025E-03 -5.8977862457462E-03
     6  5.0000000000000E-02  1.2389126783151E-02 -9.1727642649480E-03
     7  6.0000000000000E-02  1.7814421370089E-02 -1.3134394424347E-02
     8  7.0000000000000E-02  2.4205831653338E-02 -1.7758598105024E-02
     9  8.0000000000000E-02  3.1553335313516E-02 -2.3017450240303E-02
    10  9.0000000000000E-02  3.9845464998714E-02 -2.8879435401096E-02
    11  1.0000000000000E-01  4.9069347934680E-02 -3.5309735992700E-02
    12  1.1000000000000E-01  5.9210749581438E-02 -4.2270549580228E-02
    13  1.2000000000000E-01  7.0254120902031E-02 -4.9721432053285E-02
    14  1.3000000000000E-01  8.2182648774326E-02 -5.7619663066234E-02
    15  1.4000000000000E-01  9.4978309047220E-02 -6.5920629951106E-02
    16  1.5000000000000E-01  1.0862192171855E-01 -7.4578226099301E-02
    17  1.6000000000000E-01  1.2309320769340E-01 -8.3545259645646E-02
    18  1.7000000000000E-01  1.3837084656923E-01 -9.2773868168667E-02
    19  1.8000000000000E-01  1.5443253488787E-01 -1.0221593504287E-01
    20  1.9000000000000E-01  1.7125504429423E-01 -1.1182350304525E-01
    21  2.0000000000000E-01  1.8881427904825E-01 -1.2154918082851E-01
    22  2.1000000000000E-01  2.0708533234859E-01 -1.3134653792825E-01
    23  2.2000000000000E-01  2.2604254094599E-01 -1.4117048407031E-01
    24  2.3000000000000E-01  2.4565953754862E-01 -1.5097762868678E-01
    25  2.4000000000000E-01  2.6590930055285E-01 -1.6072661673380E-01
    26  2.5000000000000E-01  2.8676420066919E-01 -1.7037843712938E-01
    27  2.6000000000000E-01  3.0819604405488E-01 -1.7989670039393E-01
    28  2.7000000000000E-01  3.3017611161137E-01 -1.8924788237657E-01
    29  2.8000000000000E-01  3.5267519415606E-01 -1.9840153128495E-01
    30  2.9000000000000E-01  3.7566362323303E-01 -2.0733043560183E-01
    31  3.0000000000000E-01  3.9911129738609E-01 -2.1601075086433E-01
    32  3.1000000000000E-01  4.2298770377936E-01 -2.2442208369895E-01
    33  3.2000000000000E-01  4.4726193511427E-01 -2.3254753194226E-01
    34  3.3000000000000E-01  4.7190270185824E-01 -2.4037368013052E-01
    35  3.4000000000000E-01  4.9687833986622E-01 -2.4789055010599E-01
    36  3.5000000000000E-01  5.2215681354421E-01 -2.5509150696021E-01
    37  3.6000000000000E-01  5.4770571477023E-01 -2.6197312100960E-01
    38  3.7000000000000E-01  5.7349225785401E-01 -2.6853498697209E-01
    39  3.8000000000000E-01  5.9948327088101E-01 -2.7477950198079E-01
    40  3.9000000000000E-01  6.2564518384752E-01 -2.8071160452668E-01
    41  4.0000000000000E-01  6.5194401405268E-01 -2.8633847686385E-01
    42  4.1000000000000E-01  6.7834534926743E-01 -2.9166921383067E-01
    43  4.2000000000000E-01  7.0481432925111E-01 -2.9671446143871E-01
    44  4.3000000000000E-01  7.3131562623155E-01 -3.0148602894842E-01
    45  4.4000000000000E-01  7.5781342500440E-01 -3.0599647848839E-01
    46  4.5000000000000E-01  7.8427140334073E-01 -3.1025869657515E-01
    47  4.6000000000000E-01  8.1065271341940E-01 -3.1428545215246E-01
    48  4.7000000000000E-01  8.3691996502047E-01 -3.1808894598917E-01
    49  4.8000000000000E-01  8.6303521122861E-01 -3.2168035644921E-01
    50  4.9000000000000E-01  8.8895993740071E-01 -3.2506938677595E-01
    51  5.0000000000000E-01  9.1465505414879E-01 -3.2826381911237E-01
    52  5.1000000000000E-01  9.4008089507865E-01 -3.3126908050756E-01
    53  5.2000000000000E-01  9.6519722000564E-01 -3.3408782613837E-01
    54  5.3000000000000E-01  9.8996322434166E-01 -3.3671954490128E-01
    55  5.4000000000000E-01  1.0143375553126E+00 -3.3916019240458E-01
    56  5.5000000000000E-01  1.0382783356219E+00 -3.4140185621443E-01
    57  5.6000000000000E-01  1.0617431951262E+00 -3.4343245798188E-01
    58  5.7000000000000E-01  1.0846893110282E+00 -3.4523549680268E-01
    59  5.8000000000000E-01  1.1070734570314E+00 -3.4678983783931E-01
    60  5.9000000000000E-01  1.1288520618234E+00 -3.4806954986803E-01
    61  6.0000000000000E-01  1.1499812771827E+00 -3.4904379500517E-01
    62  6.1000000000000E-01  1.1704170559158E+00 -3.4967677342001E-01
    63  6.2000000000000E-01  1.1901152397469E+00 -3.4992772535944E-01
    64  6.3000000000000E-01  1.2090316571870E+00 -3.4975099229744E-01
    65  6.4000000000000E-01  1.2271222313158E+00 -3.4909613848218E-01
    66  6.5000000000000E-01  1.2443430973117E+00 -3.4790813359331E-01