C     ONCVPSP-4.0.1  r_core=   1.42727   1.38521
      6.0000      4.0000      200312    zatom,zion,pspd
     8      11   1     4   600     0    pspcod,pspxc,lmax,lloc,mmax,r2well
  5.99000000  0.00000000  0.00000000    rchrg fchrg qchrg
     2     2     0     0     0    nproj
     1     1           extension_switch
   0                         7.5719118519140E+00  8.8957414433059E-01
     1  0.0000000000000E+00  5.6597068143205E-09 -2.1586314347122E-08
     2  1.0000000000000E-02  4.9601190950036E-02  4.1585008643179E-02
     3  2.0000000000000E-02  9.9373996424226E-02  8.2124724620972E-02
     4  3.0000000000000E-02  1.4948536356444E-01  1.2059290802966E-01
     5  4.0000000000000E-02  2.0009298845495E-01  1.5600109804360E-01
     6  5.0000000000000E-02  2.5134089838034E-01  1.8741669198250E-01
     7  6.0000000000000E-02  3.0335527930807E-01  2.1398006751018E-01
     8  7.0000000000000E-02  3.5624062355085E-01  2.3492045487506E-01
     9  8.0000000000000E-02  4.1007626690439E-01  2.4957028768955E-01
    10  9.0000000000000E-02  4.6491337767455E-01  2.5737778700808E-01
    11  1.0000000000000E-01  5.2077245202827E-01  2.5791756394370E-01
    12  1.1000000000000E-01  5.7764136116814E-01  2.5089906022333E-01
    13  1.2000000000000E-01  6.3547398610140E-01  2.3617268332535E-01
    14  1.3000000000000E-01  6.9418946542525E-01  2.1373353251512E-01
    15  1.4000000000000E-01  7.5367207076722E-01  1.8372265350021E-01
    16  1.5000000000000E-01  8.1377171349512E-01  1.4642580184228E-01
    17  1.6000000000000E-01  8.7430507524358E-01  1.0226973794344E-01
    18  1.7000000000000E-01  9.3505734389100E-01  5.1816118626904E-02
    19  1.8000000000000E-01  9.9578452605738E-01 -4.2469086839733E-03
    20  1.9000000000000E-01  1.0562162971679E+00 -6.5115264129934E-02
    21  2.0000000000000E-01  1.1160593408182E+00 -1.2988146442276E-01
    22  2.1000000000000E-01  1.1750011207505E+00 -1.9754890799409E-01
    23  2.2000000000000E-01  1.2327140213519E+00 -2.6704767220197E-01
    24  2.3000000000000E-01  1.2888597863529E+00 -3.3725155345047E-01
    25  2.4000000000000E-01  1.3430941804333E+00 -4.0699606076595E-01
    26  2.5000000000000E-01  1.3950717948372E+00 -4.7509705815445E-01
    27  2.6000000000000E-01  1.4444509158939E+00 -5.4036974118980E-01
    28  2.7000000000000E-01  1.4908983746018E+00 -6.0164762890416E-01
    29  2.8000000000000E-01  1.5340942961384E+00 -6.5780125323321E-01
    30  2.9000000000000E-01  1.5737366703075E+00 -7.0775623496132E-01
    31  3.0000000000000E-01  1.6095456674804E+00 -7.5051044717845E-01
    32  3.1000000000000E-01  1.6412676294488E+00 -7.8514998446473E-01
    33  3.2000000000000E-01  1.6686786707029E+00 -8.1086367803155E-01
    34  3.3000000000000E-01  1.6915878328479E+00 -8.2695592345687E-01
    35  3.4000000000000E-01  1.7098397430525E+00 -8.3285761796809E-01
    36  3.5000000000000E-01  1.7233167364157E+00 -8.2813503788600E-01
    37  3.6000000000000E-01  1.7319404117826E+00 -8.1249652323438E-01
    38  3.7000000000000E-01  1.7356726006528E+00 -7.8579687497421E-01
    39  3.8000000000000E-01  1.7345157392156E+00 -7.4803941014267E-01
    40  3.9000000000000E-01  1.7285126440245E+00 -6.9937566064307E-01
    41  4.0000000000000E-01  1.7177457021904E+00 -6.4010274181526E-01
    42  4.1000000000000E-01  1.7023354970448E+00 -5.7065845649239E-01
    43  4.2000000000000E-01  1.6824388998089E+00 -4.9161423831438E-01
    44  4.3000000000000E-01  1.6582466667315E+00 -4.0366607394798E-01
    45  4.4000000000000E-01  1.6299805892665E+00 -3.0762357692719E-01
    46  4.5000000000000E-01  1.5978902520046E+00 -2.0439741550448E-01
    47  4.6000000000000E-01  1.5622494591279E+00 -9.4985322680873E-02
    48  4.7000000000000E-01  1.5233523950138E+00  1.9543061966004E-02
    49  4.8000000000000E-01  1.4815095882043E+00  1.3806225226696E-01
    50  4.9000000000000E-01  1.4370437502084E+00  2.5940759903775E-01
    51  5.0000000000000E-01  1.3902855615077E+00  3.8239231229810E-01
    52  5.1000000000000E-01  1.3415694766650E+00  5.0582453563146E-01
    53  5.2000000000000E-01  1.2912296186366E+00  6.2852418977748E-01
    54  5.3000000000000E-01  1.2395958292934E+00  7.4933931116439E-01
    55  5.4000000000000E-01  1.1869899388495E+00  8.6716162450821E-01
    56  5.5000000000000E-01  1.1337223114709E+00  9.8094110652264E-01
    57  5.6000000000000E-01  1.0800887179137E+00  1.0896993198078E+00
    58  5.7000000000000E-01  1.0263675787545E+00  1.1925413216551E+00
    59  5.8000000000000E-01  9.7281761378410E-01  1.2886659812887E+00
    60  5.9000000000000E-01  9.1967592460074E-01  1.3773745703799E+00
    61  6.0000000000000E-01  8.6715652853952E-01  1.4580775248927E+00
    62  6.1000000000000E-01  8.1544935299250E-01  1.5302993107880E+00
    63  6.2000000000000E-01  7.6471969009078E-01  1.5936813611633E+00
    64  6.3000000000000E-01  7.1510810282122E-01  1.6479830873486E+00
    65  6.4000000000000E-01  6.6673076511087E-01  1.6930810006566E+00
    66  6.5000000000000E-01  6.1968021040206E-01  1.7289660142498E+00
    67  6.6000000000000E-01  5.7402645591557E-01  1.7557390253246E+00
    68  6.7000000000000E-01  5.2981846329944E-01  1.7736049059642E+00
    69  6.8000000000000E-01  4.8708589080998E-01  1.7828650560743E+00
    70  6.9000000000000E-01  4.4584108767105E-01  1.7839086933436E+00
    71  7.0000000000000E-01  4.0608127788692E-01  1.7772030728112E+00
    72  7.1000000000000E-01  3.6779087860008E-01  1.7632828420871E+00
    73  7.2000000000000E-01  3.3094389711593E-01  1.7427387473746E+00
    74  7.3000000000000E-01  2.9550635096859E-01  1.7162059100767E+00
    75  7.4000000000000E-01  2.6143865685414E-01  1.6843518939173E+00
    76  7.5000000000000E-01  2.2869793686267E-01  1.6478647782647E+00
    77  7.6000000000000E-01  1.9724019413140E-01  1.6074414448550E+00
    78  7.7000000000000E-01  1.6702231472321E-01  1.5637762726500E+00
    79  7.8000000000000E-01  1.3800385809788E-01  1.5175504194330E+00
    80  7.9000000000000E-01  1.1014860485686E-01  1.4694218493649E+00
    81  8.0000000000000E-01  8.3425837361609E-02  1.4200162435333E+00
    82  8.1000000000000E-01  5.7811336196155E-02  1.3699189060828E+00
    83  8.2000000000000E-01  3.3288083061774E-02  1.3196677509363E+00
    84  8.3000000000000E-01  9.8466669683424E-03  1.2697473671648E+00
    85  8.4000000000000E-01 -1.2514630355758E-02  1.2205821465280E+00
    86  8.5000000000000E-01 -3.3789929659385E-02  1.1725289630770E+00
    87  8.6000000000000E-01 -5.3965928633345E-02  1.1258754637672E+00
    88  8.7000000000000E-01 -7.3022371279172E-02  1.0808410491423E+00
    89  8.8000000000000E-01 -9.0932838861183E-02  1.0375793095993E+00
    90  8.9000000000000E-01 -1.0766582929136E-01  9.9618169200908E-01
    91  9.0000000000000E-01 -1.2318608048380E-01  9.5668220145960E-01
    92  9.1000000000000E-01 -1.3745608657224E-01  9.1906295722481E-01
    93  9.2000000000000E-01 -1.5043775233142E-01  8.8326042901185E-01
    94  9.3000000000000E-01 -1.6209412983733E-01  8.4917218318543E-01
    95  9.4000000000000E-01 -1.7239118179612E-01  8.1666397091335E-01
    96  9.5000000000000E-01 -1.8129951771506E-01  7.8557699270541E-01
    97  9.6000000000000E-01 -1.8879605199990E-01  7.5573517847073E-01
    98  9.7000000000000E-01 -1.9486553691448E-01  7.2695232820879E-01
    99  9.8000000000000E-01 -1.9950192808320E-01  6.9903896776812E-01
   100  9.9000000000000E-01 -2.0270954562870E-01  6.7180878490329E-01
   101  1.0000000000000E+00 -2.0450400012171E-01  6.4508452513062E-01
   102  1.0100000000000E+00 -2.0491285899639E-01  6.1870324209485E-01
   103  1.0200000000000E+00 -2.0397603598320E-01  5.9252081528192E-01
   104  1.0300000000000E+00 -2.0174589313277E-01  5.6641566643959E-01
   105  1.0400000000000E+00 -1.9828705218048E-01  5.4029162671710E-01
   106  1.0500000000000E+00 -1.9367591897842E-01  5.1407992643933E-01
   107  1.0600000000000E+00 -1.8799993162667E-01  4.8774030096628E-01
   108  1.0700000000000E+00 -1.8135654932418E-01  4.6126122574078E-01
   109  1.0800000000000E+00 -1.7385200502481E-01  4.3465931394794E-01
   110  1.0900000000000E+00 -1.6559985029898E-01  4.0797792802770E-01
   111  1.1000000000000E+00 -1.5671932555045E-01  3.8128507371097E-01
   112  1.1100000000000E+00 -1.4733359253879E-01  3.5467065947654E-01
   113  1.1200000000000E+00 -1.3756786924305E-01  3.2824321760170E-01
   114  1.1300000000000E+00 -1.2754750912027E-01  3.0212619261483E-01
   115  1.1400000000000E+00 -1.1739606792822E-01  2.7645391044980E-01
   116  1.1500000000000E+00 -1.0723340145937E-01  2.5136734656290E-01
   117  1.1600000000000E+00 -9.7173836582915E-02  2.2700981224226E-01
   118  1.1700000000000E+00 -8.7324456314879E-02  2.0352267810407E-01
   119  1.1800000000000E+00 -7.7783536787532E-02  1.8104124877125E-01
   120  1.1900000000000E+00 -6.8639170566766E-02  1.5969089701252E-01
   121  1.2000000000000E+00 -5.9968106376637E-02  1.3958355590765E-01
   122  1.2100000000000E+00 -5.1834830337641E-02  1.2081465638069E-01
   123  1.2200000000000E+00 -4.4290908369719E-02  1.0346058458158E-01
   124  1.2300000000000E+00 -3.7374603382599E-02  8.7576718070465E-02
   125  1.2400000000000E+00 -3.1110774789545E-02  7.3196084655393E-02
   126  1.2500000000000E+00 -2.5511061361381E-02  6.0328669902919E-02
   127  1.2600000000000E+00 -2.0574342230335E-02  4.8961383116488E-02
   128  1.2700000000000E+00 -1.6287464501309E-02  3.9058673746110E-02
   129  1.2800000000000E+00 -1.2626219988725E-02  3.0563773538926E-02
   130  1.2900000000000E+00 -9.5565481321696E-03  2.3400524367307E-02
   131  1.3000000000000E+00 -7.0359369559505E-03  1.7475736109349E-02
   132  1.3100000000000E+00 -5.0149897114288E-03  1.2682006704227E-02
   133  1.3200000000000E+00 -3.4391210737990E-03  8.9009246312275E-03
   134  1.3300000000000E+00 -2.2503448100823E-03  6.0065685286672E-03
   135  1.3400000000000E+00 -1.3891004886228E-03  3.8691625410875E-03
   136  1.3500000000000E+00 -7.9614072474965E-04  2.3590371709680E-03
   137  1.3600000000000E+00 -4.1368738402774E-04  1.3478100461034E-03
   138  1.3700000000000E+00 -1.8501041515234E-04  7.0310813128780E-04
   139  1.3800000000000E+00 -6.4059477999118E-05  3.2428177382317E-04
   140  1.3900000000000E+00 -1.2118755549219E-05  1.2690494295321E-04
   141  1.4000000000000E+00  2.2255767686478E-06  4.0237266267995E-05
   142  1.4100000000000E+00  1.8315063451866E-06  1.0200416653005E-05
   143  1.4200000000000E+00  2.9887396887409E-08  1.7162989279740E-06
   144  1.4300000000000E+00  2.3858765683358E-08 -1.3851551482140E-07
   145  1.4400000000000E+00 -2.2052256225556E-09  3.4778452693541E-08
   146  1.45 -0. -0.
   147  1.46 -0.  0.
   148  1.47  0.  0.
   149  1.48  0.  0.
   150  1.49  0.  0.
   151  1.50  0.  0.
   152  1.51  0.  0.
   153  1.52  0.  0.
   154  1.53  0.  0.
   155  1.54  0.  0.
   156  1.55  0.  0.
   157  1.56  0.  0.
   158  1.57  0.  0.
   159  1.58  0.  0.
   160  1.59  0.  0.
   161  1.60  0.  0.
   162  1.61  0.  0.
   163  1.62  0.  0.
   164  1.63  0.  0.
   165  1.64  0.  0.
   166  1.65  0.  0.
   167  1.66  0.  0.
   168  1.67  0.  0.
   169  1.68  0.  0.
   170  1.69  0.  0.
   171  1.70  0.  0.
   172  1.71  0.  0.
   173  1.72  0.  0.
   174  1.73  0.  0.
   175  1.74  0.  0.
   176  1.75  0.  0.
   177  1.76  0.  0.
   178  1.77  0.  0.
   179  1.78  0.  0.
   180  1.79  0.  0.
   181  1.80  0.  0.
   182  1.81  0.  0.
   183  1.82  0.  0.
   184  1.83  0.  0.
   185  1.84  0.  0.
   186  1.85  0.  0.
   187  1.86  0.  0.
   188  1.87  0.  0.
   189  1.88  0.  0.
   190  1.89  0.  0.
   191  1.90  0.  0.
   192  1.91  0.  0.
   193  1.92  0.  0.
   194  1.93  0.  0.
   195  1.94  0.  0.
   196  1.95  0.  0.
   197  1.96  0.  0.
   198  1.97  0.  0.
   199  1.98  0.  0.
   200  1.99  0.  0.
   201  2.00  0.  0.
   202  2.01  0.  0.
   203  2.02  0.  0.
   204  2.03  0.  0.
   205  2.04  0.  0.
   206  2.05  0.  0.
   207  2.06  0.  0.
   208  2.07  0.  0.
   209  2.08  0.  0.
   210  2.09  0.  0.
   211  2.10  0.  0.
   212  2.11  0.  0.
   213  2.12  0.  0.
   214  2.13  0.  0.
   215  2.14  0.  0.
   216  2.15  0.  0.
   217  2.16  0.  0.
   218  2.17  0.  0.
   219  2.18  0.  0.
   220  2.19  0.  0.
   221  2.20  0.  0.
   222  2.21  0.  0.
   223  2.22  0.  0.
   224  2.23  0.  0.
   225  2.24  0.  0.
   226  2.25  0.  0.
   227  2.26  0.  0.
   228  2.27  0.  0.
   229  2.28  0.  0.
   230  2.29  0.  0.
   231  2.30  0.  0.
   232  2.31  0.  0.
   233  2.32  0.  0.
   234  2.33  0.  0.
   235  2.34  0.  0.
   236  2.35  0.  0.
   237  2.36  0.  0.
   238  2.37  0.  0.
   239  2.38  0.  0.
   240  2.39  0.  0.
   241  2.40  0.  0.
   242  2.41  0.  0.
   243  2.42  0.  0.
   244  2.43  0.  0.
   245  2.44  0.  0.
   246  2.45  0.  0.
   247  2.46  0.  0.
   248  2.47  0.  0.
   249  2.48  0.  0.
   250  2.49  0.  0.
   251  2.50  0.  0.
   252  2.51  0.  0.
   253  2.52  0.  0.
   254  2.53  0.  0.
   255  2.54  0.  0.
   256  2.55  0.  0.
   257  2.56  0.  0.
   258  2.57  0.  0.
   259  2.58  0.  0.
   260  2.59  0.  0.
   261  2.60  0.  0.
   262  2.61  0.  0.
   263  2.62  0.  0.
   264  2.63  0.  0.
   265  2.64  0.  0.
   266  2.65  0.  0.
   267  2.66  0.  0.
   268  2.67  0.  0.
   269  2.68  0.  0.
   270  2.69  0.  0.
   271  2.70  0.  0.
   272  2.71  0.  0.
   273  2.72  0.  0.
   274  2.73  0.  0.
   275  2.74  0.  0.
   276  2.75  0.  0.
   277  2.76  0.  0.
   278  2.77  0.  0.
   279  2.78  0.  0.
   280  2.79  0.  0.
   281  2.80  0.  0.
   282  2.81  0.  0.
   283  2.82  0.  0.
   284  2.83  0.  0.
   285  2.84  0.  0.
   286  2.85  0.  0.
   287  2.86  0.  0.
   288  2.87  0.  0.
   289  2.88  0.  0.
   290  2.89  0.  0.
   291  2.90  0.  0.
   292  2.91  0.  0.
   293  2.92  0.  0.
   294  2.93  0.  0.
   295  2.94  0.  0.
   296  2.95  0.  0.
   297  2.96  0.  0.
   298  2.97  0.  0.
   299  2.98  0.  0.
   300  2.99  0.  0.
   301  3.00  0.  0.
   302  3.01  0.  0.
   303  3.02  0.  0.
   304  3.03  0.  0.
   305  3.04  0.  0.
   306  3.05  0.  0.
   307  3.06  0.  0.
   308  3.07  0.  0.
   309  3.08  0.  0.
   310  3.09  0.  0.
   311  3.10  0.  0.
   312  3.11  0.  0.
   313  3.12  0.  0.
   314  3.13  0.  0.
   315  3.14  0.  0.
   316  3.15  0.  0.
   317  3.16  0.  0.
   318  3.17  0.  0.
   319  3.18  0.  0.
   320  3.19  0.  0.
   321  3.20  0.  0.
   322  3.21  0.  0.
   323  3.22  0.  0.
   324  3.23  0.  0.
   325  3.24  0.  0.
   326  3.25  0.  0.
   327  3.26  0.  0.
   328  3.27  0.  0.
   329  3.28  0.  0.
   330  3.29  0.  0.
   331  3.30  0.  0.
   332  3.31  0.  0.
   333  3.32  0.  0.
   334  3.33  0.  0.
   335  3.34  0.  0.
   336  3.35  0.  0.
   337  3.36  0.  0.
   338  3.37  0.  0.
   339  3.38  0.  0.
   340  3.39  0.  0.
   341  3.40  0.  0.
   342  3.41  0.  0.
   343  3.42  0.  0.
   344  3.43  0.  0.
   345  3.44  0.  0.
   346  3.45  0.  0.
   347  3.46  0.  0.
   348  3.47  0.  0.
   349  3.48  0.  0.
   350  3.49  0.  0.
   351  3.50  0.  0.
   352  3.51  0.  0.
   353  3.52  0.  0.
   354  3.53  0.  0.
   355  3.54  0.  0.
   356  3.55  0.  0.
   357  3.56  0.  0.
   358  3.57  0.  0.
   359  3.58  0.  0.
   360  3.59  0.  0.
   361  3.60  0.  0.
   362  3.61  0.  0.
   363  3.62  0.  0.
   364  3.63  0.  0.
   365  3.64  0.  0.
   366  3.65  0.  0.
   367  3.66  0.  0.
   368  3.67  0.  0.
   369  3.68  0.  0.
   370  3.69  0.  0.
   371  3.70  0.  0.
   372  3.71  0.  0.
   373  3.72  0.  0.
   374  3.73  0.  0.
   375  3.74  0.  0.
   376  3.75  0.  0.
   377  3.76  0.  0.
   378  3.77  0.  0.
   379  3.78  0.  0.
   380  3.79  0.  0.
   381  3.80  0.  0.
   382  3.81  0.  0.
   383  3.82  0.  0.
   384  3.83  0.  0.
   385  3.84  0.  0.
   386  3.85  0.  0.
   387  3.86  0.  0.
   388  3.87  0.  0.
   389  3.88  0.  0.
   390  3.89  0.  0.
   391  3.90  0.  0.
   392  3.91  0.  0.
   393  3.92  0.  0.
   394  3.93  0.  0.
   395  3.94  0.  0.
   396  3.95  0.  0.
   397  3.96  0.  0.
   398  3.97  0.  0.
   399  3.98  0.  0.
   400  3.99  0.  0.
   401  4.00  0.  0.
   402  4.01  0.  0.
   403  4.02  0.  0.
   404  4.03  0.  0.
   405  4.04  0.  0.
   406  4.05  0.  0.
   407  4.06  0.  0.
   408  4.07  0.  0.
   409  4.08  0.  0.
   410  4.09  0.  0.
   411  4.10  0.  0.
   412  4.11  0.  0.
   413  4.12  0.  0.
   414  4.13  0.  0.
   415  4.14  0.  0.
   416  4.15  0.  0.
   417  4.16  0.  0.
   418  4.17  0.  0.
   419  4.18  0.  0.
   420  4.19  0.  0.
   421  4.20  0.  0.
   422  4.21  0.  0.
   423  4.22  0.  0.
   424  4.23  0.  0.
   425  4.24  0.  0.
   426  4.25  0.  0.
   427  4.26  0.  0.
   428  4.27  0.  0.
   429  4.28  0.  0.
   430  4.29  0.  0.
   431  4.30  0.  0.
   432  4.31  0.  0.
   433  4.32  0.  0.
   434  4.33  0.  0.
   435  4.34  0.  0.
   436  4.35  0.  0.
   437  4.36  0.  0.
   438  4.37  0.  0.
   439  4.38  0.  0.
   440  4.39  0.  0.
   441  4.40  0.  0.
   442  4.41  0.  0.
   443  4.42  0.  0.
   444  4.43  0.  0.
   445  4.44  0.  0.
   446  4.45  0.  0.
   447  4.46  0.  0.
   448  4.47  0.  0.
   449  4.48  0.  0.
   450  4.49  0.  0.
   451  4.50  0.  0.
   452  4.51  0.  0.
   453  4.52  0.  0.
   454  4.53  0.  0.
   455  4.54  0.  0.
   456  4.55  0.  0.
   457  4.56  0.  0.
   458  4.57  0.  0.
   459  4.58  0.  0.
   460  4.59  0.  0.
   461  4.60  0.  0.
   462  4.61  0.  0.
   463  4.62  0.  0.
   464  4.63  0.  0.
   465  4.64  0.  0.
   466  4.65  0.  0.
   467  4.66  0.  0.
   468  4.67  0.  0.
   469  4.68  0.  0.
   470  4.69  0.  0.
   471  4.70  0.  0.
   472  4.71  0.  0.
   473  4.72  0.  0.
   474  4.73  0.  0.
   475  4.74  0.  0.
   476  4.75  0.  0.
   477  4.76  0.  0.
   478  4.77  0.  0.
   479  4.78  0.  0.
   480  4.79  0.  0.
   481  4.80  0.  0.
   482  4.81  0.  0.
   483  4.82  0.  0.
   484  4.83  0.  0.
   485  4.84  0.  0.
   486  4.85  0.  0.
   487  4.86  0.  0.
   488  4.87  0.  0.
   489  4.88  0.  0.
   490  4.89  0.  0.
   491  4.90  0.  0.
   492  4.91  0.  0.
   493  4.92  0.  0.
   494  4.93  0.  0.
   495  4.94  0.  0.
   496  4.95  0.  0.
   497  4.96  0.  0.
   498  4.97  0.  0.
   499  4.98  0.  0.
   500  4.99  0.  0.
   501  5.00  0.  0.
   502  5.01  0.  0.
   503  5.02  0.  0.
   504  5.03  0.  0.
   505  5.04  0.  0.
   506  5.05  0.  0.
   507  5.06  0.  0.
   508  5.07  0.  0.
   509  5.08  0.  0.
   510  5.09  0.  0.
   511  5.10  0.  0.
   512  5.11  0.  0.
   513  5.12  0.  0.
   514  5.13  0.  0.
   515  5.14  0.  0.
   516  5.15  0.  0.
   517  5.16  0.  0.
   518  5.17  0.  0.
   519  5.18  0.  0.
   520  5.19  0.  0.
   521  5.20  0.  0.
   522  5.21  0.  0.
   523  5.22  0.  0.
   524  5.23  0.  0.
   525  5.24  0.  0.
   526  5.25  0.  0.
   527  5.26  0.  0.
   528  5.27  0.  0.
   529  5.28  0.  0.
   530  5.29  0.  0.
   531  5.30  0.  0.
   532  5.31  0.  0.
   533  5.32  0.  0.
   534  5.33  0.  0.
   535  5.34  0.  0.
   536  5.35  0.  0.
   537  5.36  0.  0.
   538  5.37  0.  0.
   539  5.38  0.  0.
   540  5.39  0.  0.
   541  5.40  0.  0.
   542  5.41  0.  0.
   543  5.42  0.  0.
   544  5.43  0.  0.
   545  5.44  0.  0.
   546  5.45  0.  0.
   547  5.46  0.  0.
   548  5.47  0.  0.
   549  5.48  0.  0.
   550  5.49  0.  0.
   551  5.50  0.  0.
   552  5.51  0.  0.
   553  5.52  0.  0.
   554  5.53  0.  0.
   555  5.54  0.  0.
   556  5.55  0.  0.
   557  5.56  0.  0.
   558  5.57  0.  0.
   559  5.58  0.  0.
   560  5.59  0.  0.
   561  5.60  0.  0.
   562  5.61  0.  0.
   563  5.62  0.  0.
   564  5.63  0.  0.
   565  5.64  0.  0.
   566  5.65  0.  0.
   567  5.66  0.  0.
   568  5.67  0.  0.
   569  5.68  0.  0.
   570  5.69  0.  0.
   571  5.70  0.  0.
   572  5.71  0.  0.
   573  5.72  0.  0.
   574  5.73  0.  0.
   575  5.74  0.  0.
   576  5.75  0.  0.
   577  5.76  0.  0.
   578  5.77  0.  0.
   579  5.78  0.  0.
   580  5.79  0.  0.
   581  5.80  0.  0.
   582  5.81  0.  0.
   583  5.82  0.  0.
   584  5.83  0.  0.
   585  5.84  0.  0.
   586  5.85  0.  0.
   587  5.86  0.  0.
   588  5.87  0.  0.
   589  5.88  0.  0.
   590  5.89  0.  0.
   591  5.90  0.  0.
   592  5.91  0.  0.
   593  5.92  0.  0.
   594  5.93  0.  0.
   595  5.94  0.  0.
   596  5.95  0.  0.
   597  5.96  0.  0.
   598  5.97  0.  0.
   599  5.98  0.  0.
   600  5.99  0.  0.
   1                        -3.1693376780487E+00 -8.5683540059233E-01
     1  0.0000000000000E+00  2.4218012997790E-08 -1.9628466699229E-08
     2  1.0000000000000E-02  1.7930955655098E-03  5.6404079556226E-04
     3  2.0000000000000E-02  7.1544743842305E-03  2.2567911542664E-03
     4  3.0000000000000E-02  1.6030911243583E-02  5.0798418018630E-03
     5  4.0000000000000E-02  2.8335343336194E-02  9.0348797870595E-03
     6  5.0000000000000E-02  4.3949285192454E-02  1.4122287800023E-02
     7  6.0000000000000E-02  6.2726103387130E-02  2.0339272798215E-02
     8  7.0000000000000E-02  8.4495048456383E-02  2.7677609973718E-02
     9  8.0000000000000E-02  1.0906591724351E-01  3.6121107724699E-02
    10  9.0000000000000E-02  1.3623419829967E-01  4.5642915407492E-02
    11  1.0000000000000E-01  1.6578653660585E-01  5.6202807672559E-02
    12  1.1000000000000E-01  1.9750634224354E-01  6.7744586680910E-02
    13  1.2000000000000E-01  2.3117936109046E-01  8.0193746135634E-02
    14  1.3000000000000E-01  2.6659902438086E-01  9.3455538674499E-02
    15  1.4000000000000E-01  3.0357139813100E-01  1.0741358072572E-01
    16  1.5000000000000E-01  3.4191956293074E-01  1.2192911655311E-01
    17  1.6000000000000E-01  3.8148726922794E-01  1.3684104618771E-01
    18  1.7000000000000E-01  4.2214173264039E-01  1.5196680067076E-01
    19  1.8000000000000E-01  4.6377545753333E-01  1.6710412307449E-01
    20  1.9000000000000E-01  5.0630700449724E-01  1.8203378578714E-01
    21  2.0000000000000E-01  5.4968064774035E-01  1.9652324432311E-01
    22  2.1000000000000E-01  5.9386490097253E-01  2.1033119629887E-01
    23  2.2000000000000E-01  6.3884992423609E-01  2.2321298211795E-01
    24  2.3000000000000E-01  6.8464385841744E-01  2.3492673228000E-01
    25  2.4000000000000E-01  7.3126816791797E-01  2.4524013602961E-01
    26  2.5000000000000E-01  7.7875210423280E-01  2.5393767823096E-01
    27  2.6000000000000E-01  8.2712643307625E-01  2.6082816679168E-01
    28  2.7000000000000E-01  8.7641659433910E-01  2.6575235249228E-01
    29  2.8000000000000E-01  9.2663548678131E-01  2.6859042744038E-01
    30  2.9000000000000E-01  9.7777608725881E-01  2.6926917818219E-01
    31  3.0000000000000E-01  1.0298041268781E+00  2.6776856525020E-01
    32  3.1000000000000E-01  1.0826510533155E+00  2.6412750294203E-01
    33  3.2000000000000E-01  1.1362075093273E+00  2.5844862157920E-01
    34  3.3000000000000E-01  1.1903175520546E+00  2.5090180938727E-01
    35  3.4000000000000E-01  1.2447738261068E+00  2.4172635229339E-01
    36  3.5000000000000E-01  1.2993138857525E+00  2.3123151700450E-01
    37  3.6000000000000E-01  1.3536178381860E+00  2.1979545518933E-01
    38  3.7000000000000E-01  1.4073074512558E+00  2.0786234376202E-01
    39  3.8000000000000E-01  1.4599468358560E+00  1.9593771733088E-01
    40  3.9000000000000E-01  1.5110447761538E+00  1.8458199288529E-01
    41  4.0000000000000E-01  1.5600587408160E+00  1.7440223268849E-01
    42  4.1000000000000E-01  1.6064005663649E+00  1.6604223799797E-01
    43  4.2000000000000E-01  1.6494437607621E+00  1.6017111245648E-01
    44  4.3000000000000E-01  1.6885323323638E+00  1.5747047858555E-01
    45  4.4000000000000E-01  1.7229910075902E+00  1.5862057256896E-01
    46  4.5000000000000E-01  1.7521366610927E+00  1.6428548028019E-01
    47  4.6000000000000E-01  1.7752907459142E+00  1.7509781020077E-01
    48  4.7000000000000E-01  1.7917924791052E+00  1.9164312550811E-01
    49  4.8000000000000E-01  1.8010125113645E+00  2.1444447732658E-01
    50  4.9000000000000E-01  1.8023667882888E+00  2.4394739322908E-01
    51  5.0000000000000E-01  1.7953302963820E+00  2.8050567901765E-01
    52  5.1000000000000E-01  1.7794503795853E+00  3.2436838726335E-01
    53  5.2000000000000E-01  1.7543593120519E+00  3.7566829291187E-01
    54  5.3000000000000E-01  1.7197858203643E+00  4.3441219454191E-01
    55  5.4000000000000E-01  1.6755652633277E+00  5.0047332988988E-01
    56  5.5000000000000E-01  1.6216481996569E+00  5.7358615653197E-01
    57  5.6000000000000E-01  1.5581071028948E+00  6.5334370385290E-01
    58  5.7000000000000E-01  1.4851410181859E+00  7.3919765152642E-01
    59  5.8000000000000E-01  1.4030779963394E+00  8.3046123375980E-01
    60  5.9000000000000E-01  1.3123751860633E+00  9.2631500872769E-01
    61  6.0000000000000E-01  1.2136165143288E+00  1.0258154702862E+00
    62  6.1000000000000E-01  1.1075079364213E+00  1.1279064156389E+00
    63  6.2000000000000E-01  9.9487029015519E-01  1.2314329196162E+00
    64  6.3000000000000E-01  8.7662984174569E-01  1.3351577051302E+00
    65  6.4000000000000E-01  7.5380666268575E-01  1.4377796416745E+00
    66  6.5000000000000E-01  6.2750102642597E-01  1.5379540508840E+00
    67  6.6000000000000E-01  4.9887805950527E-01  1.6343144515109E+00
    68  6.7000000000000E-01  3.6915092290412E-01  1.7254953369244E+00
    69  6.8000000000000E-01  2.3956283476706E-01  1.8101555474755E+00
    70  6.9000000000000E-01  1.1136827436932E-01  1.8870017786685E+00
    71  7.0000000000000E-01 -1.4186271457712E-02  1.9548117547130E+00
    72  7.1000000000000E-01 -1.3588164485614E-01  2.0124565961471E+00
    73  7.2000000000000E-01 -2.5254505682214E-01  2.0589219200120E+00
    74  7.3000000000000E-01 -3.6306845436466E-01  2.0933272314765E+00
    75  7.4000000000000E-01 -4.6642585093700E-01  2.1149431965462E+00
    76  7.5000000000000E-01 -5.6168927652874E-01  2.1232064259818E+00
    77  7.6000000000000E-01 -6.4804303210241E-01  2.1177314500093E+00
    78  7.7000000000000E-01 -7.2479596866012E-01  2.0983196207894E+00
    79  7.8000000000000E-01 -7.9139155333992E-01  2.0649647437239E+00
    80  7.9000000000000E-01 -8.4741553262640E-01  2.0178553080859E+00
    81  8.0000000000000E-01 -8.9260105493322E-01  1.9573732606513E+00
    82  8.1000000000000E-01 -9.2683117026104E-01  1.8840893412471E+00
    83  8.2000000000000E-01 -9.5013868282243E-01  1.7987550776828E+00
    84  8.3000000000000E-01 -9.6270342197131E-01  1.7022917361404E+00
    85  8.4000000000000E-01 -9.6484812580212E-01  1.5957806524910E+00
    86  8.5000000000000E-01 -9.5703297253265E-01  1.4804537748342E+00
    87  8.6000000000000E-01 -9.3984565012407E-01  1.3576723870840E+00
    88  8.7000000000000E-01 -9.1398849730551E-01  1.2289011118654E+00
    89  8.8000000000000E-01 -8.8026359424468E-01  1.0956801999430E+00
    90  8.9000000000000E-01 -8.3955621225217E-01  9.5959687621998E-01
    91  9.0000000000000E-01 -7.9281703838345E-01  8.2225640514836E-01
    92  9.1000000000000E-01 -7.4104359431427E-01  6.8525347215305E-01
    93  9.2000000000000E-01 -6.8526126725360E-01  5.5014442970390E-01
    94  9.3000000000000E-01 -6.2650436296664E-01  4.1842091569161E-01
    95  9.4000000000000E-01 -5.6579757704204E-01  2.9148531220965E-01
    96  9.5000000000000E-01 -5.0413826009925E-01  1.7062847055590E-01
    97  9.6000000000000E-01 -4.4247982521706E-01  5.7010079656052E-02
    98  9.7000000000000E-01 -3.8171661260014E-01 -4.8357998206404E-02
    99  9.8000000000000E-01 -3.2267048687515E-01 -1.4462516147997E-01
   100  9.9000000000000E-01 -2.6607939829935E-01 -2.3111207510507E-01
   101  1.0000000000000E+00 -2.1258809019718E-01 -3.0731712074520E-01
   102  1.0100000000000E+00 -1.6274108358356E-01 -3.7291923615394E-01
   103  1.0200000000000E+00 -1.1697801588236E-01 -4.2777716344314E-01
   104  1.0300000000000E+00 -7.5631356455396E-02 -4.7192519910503E-01
   105  1.0400000000000E+00 -3.8926467230240E-02 -5.0556561150578E-01
   106  1.0500000000000E+00 -6.9839247923007E-03 -5.2905795864627E-01
   107  1.0600000000000E+00  2.0176029739811E-02 -5.4290560319802E-01
   108  1.0700000000000E+00  4.2627091730421E-02 -5.4773977676817E-01
   109  1.0800000000000E+00  6.0528764604951E-02 -5.4430159452607E-01
   110  1.0900000000000E+00  7.4116755814622E-02 -5.3342245918664E-01
   111  1.1000000000000E+00  8.3692179317159E-02 -5.1600332295037E-01
   112  1.1100000000000E+00  8.9609866889862E-02 -4.9299329282806E-01
   113  1.1200000000000E+00  9.2266103959025E-02 -4.6536807239735E-01
   114  1.1300000000000E+00  9.2086110307817E-02 -4.3410872744810E-01
   115  1.1400000000000E+00  8.9511583184305E-02 -4.0018124717229E-01
   116  1.1500000000000E+00  8.4988609810301E-02 -3.6451734604375E-01
   117  1.1600000000000E+00  7.8956237770249E-02 -3.2799691361680E-01
   118  1.1700000000000E+00  7.1835967286095E-02 -2.9143247430248E-01
   119  1.1800000000000E+00  6.4022397660380E-02 -2.5555596353810E-01
   120  1.1900000000000E+00  5.5875224229956E-02 -2.2100806672675E-01
   121  1.2000000000000E+00  4.7712741062424E-02 -1.8833030015727E-01
   122  1.2100000000000E+00  3.9806960692242E-02 -1.5795994319857E-01
   123  1.2200000000000E+00  3.2380416297203E-02 -1.3022785946985E-01
   124  1.2300000000000E+00  2.5604664476302E-02 -1.0535917181848E-01
   125  1.2400000000000E+00  1.9600460641624E-02 -8.3476686337212E-02
   126  1.2500000000000E+00  1.4439533481172E-02 -6.4606892253934E-02
   127  1.2600000000000E+00  1.0147843289959E-02 -4.8688303482528E-02
   128  1.2700000000000E+00  6.7101699620497E-03 -3.5581850840441E-02
   129  1.2800000000000E+00  4.0758428335503E-03 -2.5082986110942E-02
   130  1.2900000000000E+00  2.1653965649975E-03 -1.6935120296900E-02
   131  1.3000000000000E+00  8.7791682586835E-04 -1.0843993054447E-02
   132  1.3100000000000E+00  9.8821581492040E-05 -6.4925304422440E-03
   133  1.3200000000000E+00 -2.9197581322074E-04 -3.5562281188857E-03
   134  1.3300000000000E+00 -4.0995377631217E-04 -1.7210704471625E-03
   135  1.3400000000000E+00 -3.6219466049900E-04 -6.9031564236060E-04
   136  1.3500000000000E+00 -2.4101768333327E-04 -1.9805126774049E-04
   137  1.3600000000000E+00 -1.1702243817730E-04 -2.1659022298823E-05
   138  1.3700000000000E+00 -3.3501741495968E-05  8.4653515644090E-06
   139  1.3800000000000E+00 -2.2077284359460E-06  1.5743208501624E-06
   140  1.3900000000000E+00  7.2252519950093E-08 -1.5927862143042E-07