Al    ONCVPSP-3.2.3.1  r_core=   1.76802   1.76802   1.70587
13.0000      3.0000      170504    zatom,zion,pspd
8      11   2     4   600     0    pspcod,pspxc,lmax,lloc,mmax,r2well
5.99000000  5.00000000  0.00000000    rchrg fchrg qchrg
2     2     2     0     0    nproj
1     1           extension_switch
0                         5.1266666014246E+00  7.2829148183016E-01
1  0.0000000000000E+00 -1.5381676765625E-09  3.4042463917250E-09
2  1.0000000000000E-02  2.2298172446312E-02 -7.7006378468391E-03
3  2.0000000000000E-02  4.4482909181753E-02 -1.5144395297959E-02
4  3.0000000000000E-02  6.6442672061522E-02 -2.2078637794878E-02
5  4.0000000000000E-02  8.8069689883742E-02 -2.8259159999525E-02
6  5.0000000000000E-02  1.0926177178604E-01 -3.3454245150594E-02
7  6.0000000000000E-02  1.2992403766179E-01 -3.7448540570734E-02
8  7.0000000000000E-02  1.4997053976839E-01 -4.0046692097503E-02
9  8.0000000000000E-02  1.6932575123847E-01 -4.1076683615210E-02
10  9.0000000000000E-02  1.8792589908680E-01 -4.0392832030819E-02
11  1.0000000000000E-01  2.0572012150657E-01 -3.7878392907015E-02
12  1.1000000000000E-01  2.2267143173679E-01 -3.3447737472285E-02
13  1.2000000000000E-01  2.3875747352368E-01 -2.7048067794651E-02
14  1.3000000000000E-01  2.5397105615577E-01 -1.8660643448698E-02
15  1.4000000000000E-01  2.6832046018282E-01 -8.3014999337503E-03
16  1.5000000000000E-01  2.8182950819018E-01  3.9783536814676E-03
17  1.6000000000000E-01  2.9453739834692E-01  1.8093263006292E-02
18  1.7000000000000E-01  3.0649830183170E-01  3.3923780094109E-02
19  1.8000000000000E-01  3.1778072861769E-01  5.1318028879750E-02
20  1.9000000000000E-01  3.2846666942010E-01  7.0093567090137E-02
21  2.0000000000000E-01  3.3865052483013E-01  9.0039720304245E-02
22  2.1000000000000E-01  3.4843783573305E-01  1.1092035703720E-01
23  2.2000000000000E-01  3.5794383199225E-01  1.3247706734258E-01
24  2.3000000000000E-01  3.6729181903513E-01  1.5443270155514E-01
25  2.4000000000000E-01  3.7661142436277E-01  1.7649522051751E-01
26  2.5000000000000E-01  3.8603672809098E-01  1.9836180402172E-01
27  2.6000000000000E-01  3.9570430338406E-01  2.1972316031696E-01
28  2.7000000000000E-01  4.0575119404116E-01  2.4026797644315E-01
29  2.8000000000000E-01  4.1631285751676E-01  2.5968744689120E-01
30  2.9000000000000E-01  4.2752110228744E-01  2.7767981669799E-01
31  3.0000000000000E-01  4.3950204870612E-01  2.9395487457968E-01
32  3.1000000000000E-01  4.5237414230935E-01  3.0823833209881E-01
33  3.2000000000000E-01  4.6624624796217E-01  3.2027602614776E-01
34  3.3000000000000E-01  4.8121585224833E-01  3.2983788419562E-01
35  3.4000000000000E-01  4.9736740015081E-01  3.3672159476312E-01
36  3.5000000000000E-01  5.1477079033817E-01  3.4075592941836E-01
37  3.6000000000000E-01  5.3348005129820E-01  3.4180366717731E-01
38  3.7000000000000E-01  5.5353221816965E-01  3.3976407748374E-01
39  3.8000000000000E-01  5.7494642744653E-01  3.3457492386498E-01
40  3.9000000000000E-01  5.9772324380537E-01  3.2621395683046E-01
41  4.0000000000000E-01  6.2184423017097E-01  3.1469987151442E-01
42  4.1000000000000E-01  6.4727176883518E-01  3.0009271286661E-01
43  4.2000000000000E-01  6.7394913802004E-01  2.8249371876669E-01
44  4.3000000000000E-01  7.0180084477685E-01  2.6204459917636E-01
45  4.4000000000000E-01  7.3073321158710E-01  2.3892625724091E-01
46  4.5000000000000E-01  7.6063521052422E-01  2.1335696600368E-01
47  4.6000000000000E-01  7.9137953539861E-01  1.8559002199422E-01
48  4.7000000000000E-01  8.2282389898724E-01  1.5591090428975E-01
49  4.8000000000000E-01  8.5481253929043E-01  1.2463397462914E-01
50  4.9000000000000E-01  8.8717791580622E-01  9.2098760678731E-02
51  5.0000000000000E-01  9.1974257410779E-01  5.8665870522231E-02
52  5.1000000000000E-01  9.5232115458941E-01  2.4712591786958E-02
53  5.2000000000000E-01  9.8472251914677E-01 -9.3717665506989E-03
54  5.3000000000000E-01  1.0167519678078E+00 -4.3190727781875E-02
55  5.4000000000000E-01  1.0482135159545E+00 -7.6345631579153E-02
56  5.5000000000000E-01  1.0789122017959E+00 -1.0844068153399E-01
57  5.6000000000000E-01  1.1086563931855E+00 -1.3908798780363E-01
58  5.7000000000000E-01  1.1372600627249E+00 -1.6791253624342E-01
59  5.8000000000000E-01  1.1645450003696E+00 -1.9455701602588E-01
60  5.9000000000000E-01  1.1903429334540E+00 -2.1868643931539E-01
61  6.0000000000000E-01  1.2144975251562E+00 -2.3999248903580E-01
62  6.1000000000000E-01  1.2368662239449E+00 -2.5819753415175E-01
63  6.2000000000000E-01  1.2573219384336E+00 -2.7305825607160E-01
64  6.3000000000000E-01  1.2757545143318E+00 -2.8436883481179E-01
65  6.4000000000000E-01  1.2920719927583E+00 -2.9196364927563E-01
66  6.5000000000000E-01  1.3062016320576E+00 -2.9571945238703E-01
67  6.6000000000000E-01  1.3180906784076E+00 -2.9555698879207E-01
68  6.7000000000000E-01  1.3277068738487E+00 -2.9144203025931E-01
69  6.8000000000000E-01  1.3350386938936E+00 -2.8338581172449E-01
70  6.9000000000000E-01  1.3400953105331E+00 -2.7144485903250E-01
71  7.0000000000000E-01  1.3429062801784E+00 -2.5572020767891E-01
72  7.1000000000000E-01  1.3435209598315E+00 -2.3635602015941E-01
73  7.2000000000000E-01  1.3420076585091E+00 -2.1353761780640E-01
74  7.3000000000000E-01  1.3384525346049E+00 -1.8748895108694E-01
75  7.4000000000000E-01  1.3329582534001E+00 -1.5846954013950E-01
76  7.5000000000000E-01  1.3256424222924E+00 -1.2677092475874E-01
77  7.6000000000000E-01  1.3166358244585E+00 -9.2712669986661E-02
78  7.7000000000000E-01  1.3060804745263E+00 -5.6637979798751E-02
79  7.8000000000000E-01  1.2941275224243E+00 -1.8908977088221E-02
80  7.9000000000000E-01  1.2809350337963E+00  2.0098286944813E-02
81  8.0000000000000E-01  1.2666656772335E+00  5.9999026782921E-02
82  8.1000000000000E-01  1.2514843500408E+00  1.0040504952812E-01
83  8.2000000000000E-01  1.2355557752915E+00  1.4093014207279E-01
84  8.3000000000000E-01  1.2190421035298E+00  1.8119544448108E-01
85  8.4000000000000E-01  1.2021005526351E+00  2.2083473524161E-01
86  8.5000000000000E-01  1.1848811190627E+00  2.5949955474150E-01
87  8.6000000000000E-01  1.1675243929228E+00  2.9686409500429E-01
88  8.7000000000000E-01  1.1501595081666E+00  3.3262978641260E-01
89  8.8000000000000E-01  1.1329022575167E+00  3.6652951577208E-01
90  8.9000000000000E-01  1.1158533997382E+00  3.9833141462467E-01
91  9.0000000000000E-01  1.0990971844180E+00  4.2784216212865E-01
92  9.1000000000000E-01  1.0827001166293E+00  4.5490975302850E-01
93  9.2000000000000E-01  1.0667099807471E+00  4.7942568815857E-01
94  9.3000000000000E-01  1.0511551392822E+00  5.0132655247313E-01
95  9.4000000000000E-01  1.0360441189647E+00  5.2059495367895E-01
96  9.5000000000000E-01  1.0213654924787E+00  5.3725980304542E-01
97  9.6000000000000E-01  1.0070880602458E+00  5.5139592886205E-01
98  9.7000000000000E-01  9.9316133264229E-01  5.6312302191497E-01
99  9.8000000000000E-01  9.7951630887633E-01  5.7260392158268E-01
100  9.9000000000000E-01  9.6606654466356E-01  5.8004226022139E-01
101  1.0000000000000E+00  9.5270949683496E-01  5.8567949238793E-01
102  1.0100000000000E+00  9.3932812909636E-01  5.8979134412880E-01
103  1.0200000000000E+00  9.2579275944640E-01  5.9268372579160E-01
104  1.0300000000000E+00  9.1196312620629E-01  5.9468815968848E-01
105  1.0400000000000E+00  8.9769064652093E-01  5.9615678079256E-01
106  1.0500000000000E+00  8.8282083815495E-01  5.9745697536993E-01
107  1.0600000000000E+00  8.6719587290891E-01  5.9896572797609E-01
108  1.0700000000000E+00  8.5065722786281E-01  6.0106375192770E-01
109  1.0800000000000E+00  8.3304839889880E-01  6.0412948223545E-01
110  1.0900000000000E+00  8.1421763975985E-01  6.0853301261569E-01
111  1.1000000000000E+00  7.9402068902456E-01  6.1463006012269E-01
112  1.1100000000000E+00  7.7232344712227E-01  6.2275604148857E-01
113  1.1200000000000E+00  7.4900456570743E-01  6.3322034480429E-01
114  1.1300000000000E+00  7.2395791257624E-01  6.4630087823459E-01
115  1.1400000000000E+00  6.9709487605857E-01  6.6223897577710E-01
116  1.1500000000000E+00  6.6834647499092E-01  6.8123473522739E-01
117  1.1600000000000E+00  6.3766524224231E-01  7.0344285935315E-01
118  1.1700000000000E+00  6.0502685267650E-01  7.2896906479857E-01
119  1.1800000000000E+00  5.7043146852268E-01  7.5786711858852E-01
120  1.1900000000000E+00  5.3390477966676E-01  7.9013655200421E-01
121  1.2000000000000E+00  4.9549871976701E-01  8.2572109406260E-01
122  1.2100000000000E+00  4.5529184220241E-01  8.6450785992902E-01
123  1.2200000000000E+00  4.1338934496428E-01  9.0632731825292E-01
124  1.2300000000000E+00  3.6992273833512E-01  9.5095405090222E-01
125  1.2400000000000E+00  3.2504915306263E-01  9.9810830998913E-01
126  1.2500000000000E+00  2.7895029055674E-01  1.0474583685947E+00
127  1.2600000000000E+00  2.3183102373868E-01  1.0986236458326E+00
128  1.2700000000000E+00  1.8391766010880E-01  1.1511785803751E+00
129  1.2800000000000E+00  1.3545588154670E-01  1.2046572200162E+00
130  1.2900000000000E+00  8.6708383758391E-02  1.2585584762101E+00
131  1.3000000000000E+00  3.7952239284545E-02  1.3123519903058E+00
132  1.3100000000000E+00 -1.0523988885850E-02  1.3654845512506E+00
133  1.3200000000000E+00 -5.8423348503159E-02  1.4173869878004E+00
134  1.3300000000000E+00 -1.0544378059649E-01  1.4674814608143E+00
135  1.3400000000000E+00 -1.5128154552516E-01  1.5151890714710E+00
136  1.3500000000000E+00 -1.9563475092760E-01  1.5599376929005E+00
137  1.3600000000000E+00 -2.3820694155003E-01  1.6011699363420E+00
138  1.3700000000000E+00 -2.7871070630876E-01  1.6383511586656E+00
139  1.3800000000000E+00 -3.1687125964027E-01  1.6709773790029E+00
140  1.3900000000000E+00 -3.5242995083050E-01  1.6985830872995E+00
141  1.4000000000000E+00 -3.8514766464721E-01  1.7207487635374E+00
142  1.4100000000000E+00 -4.1480805649263E-01  1.7371080453066E+00
143  1.4200000000000E+00 -4.4122058421171E-01  1.7473534970462E+00
144  1.4300000000000E+00 -4.6422326723502E-01  1.7512415840782E+00
145  1.4400000000000E+00 -4.8368497507259E-01  1.7485926552920E+00
146  1.4500000000000E+00 -4.9950732002831E-01  1.7392911067043E+00
147  1.4600000000000E+00 -5.1162608641175E-01  1.7232864344464E+00
148  1.4700000000000E+00 -5.2001219002140E-01  1.7005927937805E+00
149  1.4800000000000E+00 -5.2467218502057E-01  1.6712880266873E+00
150  1.4900000000000E+00 -5.2564829733311E-01  1.6355124560167E+00
151  1.5000000000000E+00 -5.2301804054285E-01  1.5934673571535E+00
152  1.5100000000000E+00 -5.1689341462520E-01  1.5454133600837E+00
153  1.5200000000000E+00 -5.0741974051310E-01  1.4916686975857E+00
154  1.5300000000000E+00 -4.9477415066584E-01  1.4326073901338E+00
155  1.5400000000000E+00 -4.7916377874562E-01  1.3686572639729E+00
156  1.5500000000000E+00 -4.6082366533294E-01  1.3002977443244E+00
157  1.5600000000000E+00 -4.4001441702822E-01  1.2280572745922E+00
158  1.5700000000000E+00 -4.1701962544567E-01  1.1525103183348E+00
159  1.5800000000000E+00 -3.9214307270295E-01  1.0742736899972E+00
160  1.5900000000000E+00 -3.6570573547685E-01  9.9400233434399E-01
161  1.6000000000000E+00 -3.3804259543821E-01  9.1238422652238E-01
162  1.6100000000000E+00 -3.0949928906095E-01  8.3013466349446E-01
163  1.6200000000000E+00 -2.8042859518512E-01  7.4798968979090E-01
164  1.6300000000000E+00 -2.5118681041651E-01  6.6669896240967E-01
165  1.6400000000000E+00 -2.2213001632987E-01  5.8701794027883E-01
166  1.6500000000000E+00 -1.9361029819781E-01  5.0969968731999E-01
167  1.6600000000000E+00 -1.6597193280427E-01  4.3548630428030E-01
168  1.6700000000000E+00 -1.3954760740646E-01  3.6510023429253E-01
169  1.6800000000000E+00 -1.1465469955490E-01  2.9923553615047E-01
170  1.6900000000000E+00 -9.1591677964670E-02  2.3854932393277E-01
171  1.7000000000000E+00 -7.0634661081513E-02  1.8365350021573E-01
172  1.7100000000000E+00 -5.2042475720200E-02  1.3512846746959E-01
173  1.7200000000000E+00 -3.6025527253433E-02  9.3442729290445E-02
174  1.7300000000000E+00 -2.2716238635646E-02  5.8876737786225E-02
175  1.7400000000000E+00 -1.2343702691028E-02  3.1976236829968E-02
176  1.7500000000000E+00 -5.2549257261740E-03  1.3606898476446E-02
177  1.7600000000000E+00 -1.3486746541536E-03  3.4878299434992E-03
178  1.7700000000000E+00  1.8191734736534E-04 -4.7589108560434E-04
179  1.7800000000000E+00  3.1554347309652E-04 -8.1934699723620E-04
180  1.7900000000000E+00 -1.6475527959046E-05  4.2749871731330E-05
181  1.8000000000000E+00 -1.1068972894107E-04  2.8710682563706E-04
182  1.8100000000000E+00 -1.0004683467589E-05  2.5944863460380E-05
183  1.8200000000000E+00  2.0131033197353E-05 -5.2271950479896E-05
184  1.8300000000000E+00  6.6027198342049E-06 -1.7142489165428E-05
185  1.8400000000000E+00 -5.5243743160932E-08  1.5657612354110E-07
186  1.8500000000000E+00 -3.3559398535971E-08  9.5116663543705E-08
187  1.8600000000000E+00  0.0000000000000E+00  0.0000000000000E+00
188  1.8700000000000E+00  0.0000000000000E+00  0.0000000000000E+00
189  1.8800000000000E+00  0.0000000000000E+00  0.0000000000000E+00
190  1.8900000000000E+00  0.0000000000000E+00  0.0000000000000E+00
191  1.9000000000000E+00  0.0000000000000E+00  0.0000000000000E+00
192  1.9100000000000E+00  0.0000000000000E+00  0.0000000000000E+00
193  1.9200000000000E+00  0.0000000000000E+00  0.0000000000000E+00
194  1.9300000000000E+00  0.0000000000000E+00  0.0000000000000E+00
195  1.9400000000000E+00  0.0000000000000E+00  0.0000000000000E+00
196  1.9500000000000E+00  0.0000000000000E+00  0.0000000000000E+00
197  1.9600000000000E+00  0.0000000000000E+00  0.0000000000000E+00
198  1.9700000000000E+00  0.0000000000000E+00  0.0000000000000E+00
199  1.9800000000000E+00  0.0000000000000E+00  0.0000000000000E+00
200  1.9900000000000E+00  0.0000000000000E+00  0.0000000000000E+00
201  2.0000000000000E+00  0.0000000000000E+00  0.0000000000000E+00
202  2.0100000000000E+00  0.0000000000000E+00  0.0000000000000E+00
203  2.0200000000000E+00  0.0000000000000E+00  0.0000000000000E+00
204  2.0300000000000E+00  0.0000000000000E+00  0.0000000000000E+00
205  2.0400000000000E+00  0.0000000000000E+00  0.0000000000000E+00
206  2.0500000000000E+00  0.0000000000000E+00  0.0000000000000E+00
207  2.0600000000000E+00  0.0000000000000E+00  0.0000000000000E+00
208  2.0700000000000E+00  0.0000000000000E+00  0.0000000000000E+00
209  2.0800000000000E+00  0.0000000000000E+00  0.0000000000000E+00
210  2.0900000000000E+00  0.0000000000000E+00  0.0000000000000E+00
211  2.1000000000000E+00  0.0000000000000E+00  0.0000000000000E+00
212  2.1100000000000E+00  0.0000000000000E+00  0.0000000000000E+00
213  2.1200000000000E+00  0.0000000000000E+00  0.0000000000000E+00
214  2.1300000000000E+00  0.0000000000000E+00  0.0000000000000E+00
215  2.1400000000000E+00  0.0000000000000E+00  0.0000000000000E+00
216  2.1500000000000E+00  0.0000000000000E+00  0.0000000000000E+00
217  2.1600000000000E+00  0.0000000000000E+00  0.0000000000000E+00
218  2.1700000000000E+00  0.0000000000000E+00  0.0000000000000E+00
219  2.1800000000000E+00  0.0000000000000E+00  0.0000000000000E+00
220  2.1900000000000E+00  0.0000000000000E+00  0.0000000000000E+00
221  2.2000000000000E+00  0.0000000000000E+00  0.0000000000000E+00
222  2.2100000000000E+00  0.0000000000000E+00  0.0000000000000E+00
223  2.2200000000000E+00  0.0000000000000E+00  0.0000000000000E+00
224  2.2300000000000E+00  0.0000000000000E+00  0.0000000000000E+00
225  2.2400000000000E+00  0.0000000000000E+00  0.0000000000000E+00
226  2.2500000000000E+00  0.0000000000000E+00  0.0000000000000E+00
227  2.2600000000000E+00  0.0000000000000E+00  0.0000000000000E+00
228  2.2700000000000E+00  0.0000000000000E+00  0.0000000000000E+00
229  2.2800000000000E+00  0.0000000000000E+00  0.0000000000000E+00
230  2.2900000000000E+00  0.0000000000000E+00  0.0000000000000E+00
231  2.3000000000000E+00  0.0000000000000E+00  0.0000000000000E+00
232  2.3100000000000E+00  0.0000000000000E+00  0.0000000000000E+00
233  2.3200000000000E+00  0.0000000000000E+00  0.0000000000000E+00
234  2.3300000000000E+00  0.0000000000000E+00  0.0000000000000E+00
235  2.3400000000000E+00  0.0000000000000E+00  0.0000000000000E+00
236  2.3500000000000E+00  0.0000000000000E+00  0.0000000000000E+00
237  2.3600000000000E+00  0.0000000000000E+00  0.0000000000000E+00
238  2.3700000000000E+00  0.0000000000000E+00  0.0000000000000E+00
239  2.3800000000000E+00  0.0000000000000E+00  0.0000000000000E+00
240  2.3900000000000E+00  0.0000000000000E+00  0.0000000000000E+00
241  2.4000000000000E+00  0.0000000000000E+00  0.0000000000000E+00
242  2.4100000000000E+00  0.0000000000000E+00  0.0000000000000E+00
243  2.4200000000000E+00  0.0000000000000E+00  0.0000000000000E+00
244  2.4300000000000E+00  0.0000000000000E+00  0.0000000000000E+00
245  2.4400000000000E+00  0.0000000000000E+00  0.0000000000000E+00
246  2.4500000000000E+00  0.0000000000000E+00  0.0000000000000E+00
247  2.4600000000000E+00  0.0000000000000E+00  0.0000000000000E+00
248  2.4700000000000E+00  0.0000000000000E+00  0.0000000000000E+00
249  2.4800000000000E+00  0.0000000000000E+00  0.0000000000000E+00
250  2.4900000000000E+00  0.0000000000000E+00  0.0000000000000E+00
251  2.5000000000000E+00  0.0000000000000E+00  0.0000000000000E+00
252  2.5100000000000E+00  0.0000000000000E+00  0.0000000000000E+00
253  2.5200000000000E+00  0.0000000000000E+00  0.0000000000000E+00
254  2.5300000000000E+00  0.0000000000000E+00  0.0000000000000E+00
255  2.5400000000000E+00  0.0000000000000E+00  0.0000000000000E+00
256  2.5500000000000E+00  0.0000000000000E+00  0.0000000000000E+00
257  2.5600000000000E+00  0.0000000000000E+00  0.0000000000000E+00
258  2.5700000000000E+00  0.0000000000000E+00  0.0000000000000E+00
259  2.5800000000000E+00  0.0000000000000E+00  0.0000000000000E+00
260  2.5900000000000E+00  0.0000000000000E+00  0.0000000000000E+00
261  2.6000000000000E+00  0.0000000000000E+00  0.0000000000000E+00
262  2.6100000000000E+00  0.0000000000000E+00  0.0000000000000E+00
263  2.6200000000000E+00  0.0000000000000E+00  0.0000000000000E+00
264  2.6300000000000E+00  0.0000000000000E+00  0.0000000000000E+00
265  2.6400000000000E+00  0.0000000000000E+00  0.0000000000000E+00
266  2.6500000000000E+00  0.0000000000000E+00  0.0000000000000E+00
267  2.6600000000000E+00  0.0000000000000E+00  0.0000000000000E+00
268  2.6700000000000E+00  0.0000000000000E+00  0.0000000000000E+00
269  2.6800000000000E+00  0.0000000000000E+00  0.0000000000000E+00
270  2.6900000000000E+00  0.0000000000000E+00  0.0000000000000E+00
271  2.7000000000000E+00  0.0000000000000E+00  0.0000000000000E+00
272  2.7100000000000E+00  0.0000000000000E+00  0.0000000000000E+00
273  2.7200000000000E+00  0.0000000000000E+00  0.0000000000000E+00
274  2.7300000000000E+00  0.0000000000000E+00  0.0000000000000E+00
275  2.7400000000000E+00  0.0000000000000E+00  0.0000000000000E+00
276  2.7500000000000E+00  0.0000000000000E+00  0.0000000000000E+00
277  2.7600000000000E+00  0.0000000000000E+00  0.0000000000000E+00
278  2.7700000000000E+00  0.0000000000000E+00  0.0000000000000E+00
279  2.7800000000000E+00  0.0000000000000E+00  0.0000000000000E+00
280  2.7900000000000E+00  0.0000000000000E+00  0.0000000000000E+00
281  2.8000000000000E+00  0.0000000000000E+00  0.0000000000000E+00
282  2.8100000000000E+00  0.0000000000000E+00  0.0000000000000E+00
283  2.8200000000000E+00  0.0000000000000E+00  0.0000000000000E+00
284  2.8300000000000E+00  0.0000000000000E+00  0.0000000000000E+00
285  2.8400000000000E+00  0.0000000000000E+00  0.0000000000000E+00
286  2.8500000000000E+00  0.0000000000000E+00  0.0000000000000E+00
287  2.8600000000000E+00  0.0000000000000E+00  0.0000000000000E+00
288  2.8700000000000E+00  0.0000000000000E+00  0.0000000000000E+00
289  2.8800000000000E+00  0.0000000000000E+00  0.0000000000000E+00
290  2.8900000000000E+00  0.0000000000000E+00  0.0000000000000E+00
291  2.9000000000000E+00  0.0000000000000E+00  0.0000000000000E+00
292  2.9100000000000E+00  0.0000000000000E+00  0.0000000000000E+00
293  2.9200000000000E+00  0.0000000000000E+00  0.0000000000000E+00
294  2.9300000000000E+00  0.0000000000000E+00  0.0000000000000E+00
295  2.9400000000000E+00  0.0000000000000E+00  0.0000000000000E+00
296  2.9500000000000E+00  0.0000000000000E+00  0.0000000000000E+00
297  2.9600000000000E+00  0.0000000000000E+00  0.0000000000000E+00
298  2.9700000000000E+00  0.0000000000000E+00  0.0000000000000E+00
299  2.9800000000000E+00  0.0000000000000E+00  0.0000000000000E+00
300  2.9900000000000E+00  0.0000000000000E+00  0.0000000000000E+00
301  3.0000000000000E+00  0.0000000000000E+00  0.0000000000000E+00
302  3.0100000000000E+00  0.0000000000000E+00  0.0000000000000E+00
303  3.0200000000000E+00  0.0000000000000E+00  0.0000000000000E+00
304  3.0300000000000E+00  0.0000000000000E+00  0.0000000000000E+00
305  3.0400000000000E+00  0.0000000000000E+00  0.0000000000000E+00
306  3.0500000000000E+00  0.0000000000000E+00  0.0000000000000E+00
307  3.0600000000000E+00  0.0000000000000E+00  0.0000000000000E+00
308  3.0700000000000E+00  0.0000000000000E+00  0.0000000000000E+00
309  3.0800000000000E+00  0.0000000000000E+00  0.0000000000000E+00
310  3.0900000000000E+00  0.0000000000000E+00  0.0000000000000E+00
311  3.1000000000000E+00  0.0000000000000E+00  0.0000000000000E+00
312  3.1100000000000E+00  0.0000000000000E+00  0.0000000000000E+00
313  3.1200000000000E+00  0.0000000000000E+00  0.0000000000000E+00
314  3.1300000000000E+00  0.0000000000000E+00  0.0000000000000E+00
315  3.1400000000000E+00  0.0000000000000E+00  0.0000000000000E+00
316  3.1500000000000E+00  0.0000000000000E+00  0.0000000000000E+00
317  3.1600000000000E+00  0.0000000000000E+00  0.0000000000000E+00
318  3.1700000000000E+00  0.0000000000000E+00  0.0000000000000E+00
319  3.1800000000000E+00  0.0000000000000E+00  0.0000000000000E+00
320  3.1900000000000E+00  0.0000000000000E+00  0.0000000000000E+00
321  3.2000000000000E+00  0.0000000000000E+00  0.0000000000000E+00
322  3.2100000000000E+00  0.0000000000000E+00  0.0000000000000E+00
323  3.2200000000000E+00  0.0000000000000E+00  0.0000000000000E+00
324  3.2300000000000E+00  0.0000000000000E+00  0.0000000000000E+00
325  3.2400000000000E+00  0.0000000000000E+00  0.0000000000000E+00
326  3.2500000000000E+00  0.0000000000000E+00  0.0000000000000E+00
327  3.2600000000000E+00  0.0000000000000E+00  0.0000000000000E+00
328  3.2700000000000E+00  0.0000000000000E+00  0.0000000000000E+00
329  3.2800000000000E+00  0.0000000000000E+00  0.0000000000000E+00
330  3.2900000000000E+00  0.0000000000000E+00  0.0000000000000E+00
331  3.3000000000000E+00  0.0000000000000E+00  0.0000000000000E+00
332  3.3100000000000E+00  0.0000000000000E+00  0.0000000000000E+00
333  3.3200000000000E+00  0.0000000000000E+00  0.0000000000000E+00
334  3.3300000000000E+00  0.0000000000000E+00  0.0000000000000E+00
335  3.3400000000000E+00  0.0000000000000E+00  0.0000000000000E+00
336  3.3500000000000E+00  0.0000000000000E+00  0.0000000000000E+00
337  3.3600000000000E+00  0.0000000000000E+00  0.0000000000000E+00
338  3.3700000000000E+00  0.0000000000000E+00  0.0000000000000E+00
339  3.3800000000000E+00  0.0000000000000E+00  0.0000000000000E+00
340  3.3900000000000E+00  0.0000000000000E+00  0.0000000000000E+00
341  3.4000000000000E+00  0.0000000000000E+00  0.0000000000000E+00
342  3.4100000000000E+00  0.0000000000000E+00  0.0000000000000E+00
343  3.4200000000000E+00  0.0000000000000E+00  0.0000000000000E+00
344  3.4300000000000E+00  0.0000000000000E+00  0.0000000000000E+00
345  3.4400000000000E+00  0.0000000000000E+00  0.0000000000000E+00
346  3.4500000000000E+00  0.0000000000000E+00  0.0000000000000E+00
347  3.4600000000000E+00  0.0000000000000E+00  0.0000000000000E+00
348  3.4700000000000E+00  0.0000000000000E+00  0.0000000000000E+00
349  3.4800000000000E+00  0.0000000000000E+00  0.0000000000000E+00
350  3.4900000000000E+00  0.0000000000000E+00  0.0000000000000E+00
351  3.5000000000000E+00  0.0000000000000E+00  0.0000000000000E+00
352  3.5100000000000E+00  0.0000000000000E+00  0.0000000000000E+00
353  3.5200000000000E+00  0.0000000000000E+00  0.0000000000000E+00
354  3.5300000000000E+00  0.0000000000000E+00  0.0000000000000E+00
355  3.5400000000000E+00  0.0000000000000E+00  0.0000000000000E+00
356  3.5500000000000E+00  0.0000000000000E+00  0.0000000000000E+00
357  3.5600000000000E+00  0.0000000000000E+00  0.0000000000000E+00
358  3.5700000000000E+00  0.0000000000000E+00  0.0000000000000E+00
359  3.5800000000000E+00  0.0000000000000E+00  0.0000000000000E+00
360  3.5900000000000E+00  0.0000000000000E+00  0.0000000000000E+00
361  3.6000000000000E+00  0.0000000000000E+00  0.0000000000000E+00
362  3.6100000000000E+00  0.0000000000000E+00  0.0000000000000E+00
363  3.6200000000000E+00  0.0000000000000E+00  0.0000000000000E+00
364  3.6300000000000E+00  0.0000000000000E+00  0.0000000000000E+00
365  3.6400000000000E+00  0.0000000000000E+00  0.0000000000000E+00
366  3.6500000000000E+00  0.0000000000000E+00  0.0000000000000E+00
367  3.6600000000000E+00  0.0000000000000E+00  0.0000000000000E+00
368  3.6700000000000E+00  0.0000000000000E+00  0.0000000000000E+00
369  3.6800000000000E+00  0.0000000000000E+00  0.0000000000000E+00
370  3.6900000000000E+00  0.0000000000000E+00  0.0000000000000E+00
371  3.7000000000000E+00  0.0000000000000E+00  0.0000000000000E+00
372  3.7100000000000E+00  0.0000000000000E+00  0.0000000000000E+00
373  3.7200000000000E+00  0.0000000000000E+00  0.0000000000000E+00
374  3.7300000000000E+00  0.0000000000000E+00  0.0000000000000E+00
375  3.7400000000000E+00  0.0000000000000E+00  0.0000000000000E+00
376  3.7500000000000E+00  0.0000000000000E+00  0.0000000000000E+00
377  3.7600000000000E+00  0.0000000000000E+00  0.0000000000000E+00
378  3.7700000000000E+00  0.0000000000000E+00  0.0000000000000E+00
379  3.7800000000000E+00  0.0000000000000E+00  0.0000000000000E+00
380  3.7900000000000E+00  0.0000000000000E+00  0.0000000000000E+00
381  3.8000000000000E+00  0.0000000000000E+00  0.0000000000000E+00
382  3.8100000000000E+00  0.0000000000000E+00  0.0000000000000E+00
383  3.8200000000000E+00  0.0000000000000E+00  0.0000000000000E+00
384  3.8300000000000E+00  0.0000000000000E+00  0.0000000000000E+00
385  3.8400000000000E+00  0.0000000000000E+00  0.0000000000000E+00
386  3.8500000000000E+00  0.0000000000000E+00  0.0000000000000E+00
387  3.8600000000000E+00  0.0000000000000E+00  0.0000000000000E+00
388  3.8700000000000E+00  0.0000000000000E+00  0.0000000000000E+00
389  3.8800000000000E+00  0.0000000000000E+00  0.0000000000000E+00
390  3.8900000000000E+00  0.0000000000000E+00  0.0000000000000E+00
391  3.9000000000000E+00  0.0000000000000E+00  0.0000000000000E+00
392  3.9100000000000E+00  0.0000000000000E+00  0.0000000000000E+00
393  3.9200000000000E+00  0.0000000000000E+00  0.0000000000000E+00
394  3.9300000000000E+00  0.0000000000000E+00  0.0000000000000E+00
395  3.9400000000000E+00  0.0000000000000E+00  0.0000000000000E+00
396  3.9500000000000E+00  0.0000000000000E+00  0.0000000000000E+00
397  3.9600000000000E+00  0.0000000000000E+00  0.0000000000000E+00
398  3.9700000000000E+00  0.0000000000000E+00  0.0000000000000E+00
399  3.9800000000000E+00  0.0000000000000E+00  0.0000000000000E+00
400  3.9900000000000E+00  0.0000000000000E+00  0.0000000000000E+00
401  4.0000000000000E+00  0.0000000000000E+00  0.0000000000000E+00
402  4.0100000000000E+00  0.0000000000000E+00  0.0000000000000E+00
403  4.0200000000000E+00  0.0000000000000E+00  0.0000000000000E+00
404  4.0300000000000E+00  0.0000000000000E+00  0.0000000000000E+00
405  4.0400000000000E+00  0.0000000000000E+00  0.0000000000000E+00
406  4.0500000000000E+00  0.0000000000000E+00  0.0000000000000E+00
407  4.0600000000000E+00  0.0000000000000E+00  0.0000000000000E+00
408  4.0700000000000E+00  0.0000000000000E+00  0.0000000000000E+00
409  4.0800000000000E+00  0.0000000000000E+00  0.0000000000000E+00
410  4.0900000000000E+00  0.0000000000000E+00  0.0000000000000E+00
411  4.1000000000000E+00  0.0000000000000E+00  0.0000000000000E+00
412  4.1100000000000E+00  0.0000000000000E+00  0.0000000000000E+00
413  4.1200000000000E+00  0.0000000000000E+00  0.0000000000000E+00
414  4.1300000000000E+00  0.0000000000000E+00  0.0000000000000E+00
415  4.1400000000000E+00  0.0000000000000E+00  0.0000000000000E+00
416  4.1500000000000E+00  0.0000000000000E+00  0.0000000000000E+00
417  4.1600000000000E+00  0.0000000000000E+00  0.0000000000000E+00
418  4.1700000000000E+00  0.0000000000000E+00  0.0000000000000E+00
419  4.1800000000000E+00  0.0000000000000E+00  0.0000000000000E+00
420  4.1900000000000E+00  0.0000000000000E+00  0.0000000000000E+00
421  4.2000000000000E+00  0.0000000000000E+00  0.0000000000000E+00
422  4.2100000000000E+00  0.0000000000000E+00  0.0000000000000E+00
423  4.2200000000000E+00  0.0000000000000E+00  0.0000000000000E+00
424  4.2300000000000E+00  0.0000000000000E+00  0.0000000000000E+00
425  4.2400000000000E+00  0.0000000000000E+00  0.0000000000000E+00
426  4.2500000000000E+00  0.0000000000000E+00  0.0000000000000E+00
427  4.2600000000000E+00  0.0000000000000E+00  0.0000000000000E+00
428  4.2700000000000E+00  0.0000000000000E+00  0.0000000000000E+00
429  4.2800000000000E+00  0.0000000000000E+00  0.0000000000000E+00
430  4.2900000000000E+00  0.0000000000000E+00  0.0000000000000E+00
431  4.3000000000000E+00  0.0000000000000E+00  0.0000000000000E+00
432  4.3100000000000E+00  0.0000000000000E+00  0.0000000000000E+00
433  4.3200000000000E+00  0.0000000000000E+00  0.0000000000000E+00
434  4.3300000000000E+00  0.0000000000000E+00  0.0000000000000E+00
435  4.3400000000000E+00  0.0000000000000E+00  0.0000000000000E+00
436  4.3500000000000E+00  0.0000000000000E+00  0.0000000000000E+00
437  4.3600000000000E+00  0.0000000000000E+00  0.0000000000000E+00
438  4.3700000000000E+00  0.0000000000000E+00  0.0000000000000E+00
439  4.3800000000000E+00  0.0000000000000E+00  0.0000000000000E+00
440  4.3900000000000E+00  0.0000000000000E+00  0.0000000000000E+00
441  4.4000000000000E+00  0.0000000000000E+00  0.0000000000000E+00
442  4.4100000000000E+00  0.0000000000000E+00  0.0000000000000E+00
443  4.4200000000000E+00  0.0000000000000E+00  0.0000000000000E+00