:MDSTEP: 10
:R(Bohr):
  3.9864741404E-01   1.2491454245E-01   7.0678516223E-02
  3.8002522363E+00   1.5160163045E+01   3.8763884757E+00
  7.6897606867E+00   1.5111605591E+01   2.5067152019E-01
  1.1325085089E+01   1.5163706203E+01   3.7204196361E+00
  4.5903240113E-02   7.6639659255E+00   1.5165787331E+01
  3.7628077002E+00   7.6586555746E+00   3.7818155478E+00
  7.4550739908E+00   7.5014801763E+00   4.3833531293E-02
  1.1384347311E+01   7.6187076001E+00   3.8559940314E+00
  4.7293268060E-01   1.5108192467E+01   7.6089683867E+00
  3.7206014605E+00   8.8642111422E-03   1.1278091493E+01
  7.5883360691E+00   1.6055318726E-02   7.8372502020E+00
  1.1394615714E+01   1.5108625459E+01   1.1450834575E+01
  8.9072873347E-02   7.5909176249E+00   7.6473565296E+00
  3.9189421111E+00   7.6547782813E+00   1.1369034053E+01
  7.4704248330E+00   7.6910771675E+00   7.5379477791E+00
  1.1387093725E+01   7.4602182327E+00   1.1368845787E+01
  2.4938470659E-02   3.8241071397E+00   3.8243381176E+00
  3.7590572139E+00   3.8008600337E+00   1.5162768565E+01
  7.6310410256E+00   3.7292199401E+00   3.6748717676E+00
  1.1346067051E+01   3.7777945410E+00   1.5123382670E+01
  2.9469152191E-01   1.1351394172E+01   3.8217160573E+00
  3.7274196177E+00   1.1395290803E+01   4.8695034160E-01
  7.6271081452E+00   1.1435895068E+01   3.8147906134E+00
  1.1254312491E+01   1.1371157649E+01   1.1204255356E-02
  4.0914909212E-02   3.7491758384E+00   1.1301599157E+01
  3.7945647018E+00   3.7480013010E+00   7.6618038820E+00
  7.6502086227E+00   3.7686185080E+00   1.1391113022E+01
  1.1333840100E+01   3.8339095611E+00   7.6277079589E+00
  2.9112674759E-01   1.1379720329E+01   1.1392007162E+01
  3.7650742673E+00   1.1295170504E+01   7.9795711551E+00
  7.6222099614E+00   1.1451286684E+01   1.1452710310E+01
  1.1422675328E+01   1.1383469525E+01   7.6182710000E+00
:V(Bohr/atu):
 -3.7677552262E-05   5.6228632582E-04   3.1725911134E-04
  4.3410375777E-05  -5.3126753996E-05   3.7283225680E-04
  4.6290240786E-04  -2.7150276592E-04  -2.4261131424E-04
 -2.3985428979E-04  -3.7419176306E-05  -3.2053157999E-04
  2.0878620776E-04   3.4527262925E-04  -3.1533171541E-05
 -1.3880796394E-04   3.2628260866E-04  -5.1664215264E-05
 -5.8745364851E-04  -3.8206742622E-04   2.0242632881E-04
  2.0899869145E-05   1.4178179539E-04   2.8188072646E-04
  2.9049681461E-04  -2.8696851892E-04   9.9350318625E-05
 -3.1710808264E-04   4.2662553691E-05  -4.5211481309E-04
  1.0727654308E-05   7.3469348873E-05  -2.3903149748E-04
  7.2192038251E-05  -2.8365862014E-04   3.2729928415E-04
  4.0481381287E-04   2.1873974305E-05   2.7534706277E-04
  5.6159096199E-04   3.0494936611E-04  -5.1060383176E-05
 -5.2236483032E-04   4.6797441446E-04  -2.1295811995E-04
  3.1933835983E-05  -5.7422764238E-04  -4.5687447374E-05
  1.1121840402E-04   1.3643553335E-04   1.4407832209E-04
 -1.5455761773E-04   3.4978912511E-05  -2.5486025296E-05
  2.1118053804E-04  -2.8806911122E-04  -5.5082403395E-04
 -1.6373495010E-04  -6.2784185417E-05  -2.2915067723E-04
 -8.4154908998E-06  -1.2885958779E-04   1.0865412154E-04
 -3.1046461510E-04   6.7598015941E-05  -5.3633315809E-05
  2.0415461848E-04   2.5379826491E-04   5.7372229805E-05
 -5.9851141729E-04  -3.0725813053E-05   8.0940281257E-05
  1.8463347650E-04  -1.9561261362E-04  -3.5712942857E-04
 -1.8129249133E-06  -2.0421413853E-04   3.6187606576E-04
  3.0290099297E-04  -1.0821158745E-04   4.4160661038E-05
 -2.0809177305E-04   1.8473452001E-04   1.8312688302E-04
 -3.1960625223E-05   1.5865477364E-06   2.5088352962E-05
 -1.5631715550E-04  -3.8465387379E-04  -4.8536648459E-04
  1.9108928189E-04   3.2341090928E-04   2.9744623703E-04
  1.7459338250E-04   1.8627121864E-05   1.7864964727E-04
:NPT_NH_QMASS: 4
 4000 4000 4000 4000
:NPT_NH_BMASS: 250000
:NPT_NH_vlogs: 4
 -0.000151348447583514 -0.000175850772787907 -0.000175948065501553 -0.000174097050341683
:NPT_NH_vlogv: -8.45268760501599e-05
:NPT_NH_xlogs: 4
 -0.0182752852843905 -0.0174496676487206 -0.0174580634902561 -0.0173686576585442
:CELL: 15.1725591965069 15.1725591965069 15.1725591965069
:TARGET_PRESSURE: 0 GPa
:TEL(K): 1120
:TIO(K): 1141.57712839491
