:MDSTEP: 10
:R(Bohr):
  3.9864741405E-01   1.2491454246E-01   7.0678516184E-02
  3.8002522363E+00   1.5160163045E+01   3.8763884757E+00
  7.6897606867E+00   1.5111605591E+01   2.5067152020E-01
  1.1325085089E+01   1.5163706203E+01   3.7204196361E+00
  4.5903240118E-02   7.6639659255E+00   1.5165787330E+01
  3.7628077002E+00   7.6586555746E+00   3.7818155477E+00
  7.4550739908E+00   7.5014801763E+00   4.3833531294E-02
  1.1384347311E+01   7.6187076001E+00   3.8559940315E+00
  4.7293268057E-01   1.5108192467E+01   7.6089683867E+00
  3.7206014605E+00   8.8642111305E-03   1.1278091493E+01
  7.5883360691E+00   1.6055318691E-02   7.8372502020E+00
  1.1394615714E+01   1.5108625459E+01   1.1450834575E+01
  8.9072873292E-02   7.5909176249E+00   7.6473565296E+00
  3.9189421111E+00   7.6547782813E+00   1.1369034053E+01
  7.4704248330E+00   7.6910771675E+00   7.5379477790E+00
  1.1387093725E+01   7.4602182327E+00   1.1368845787E+01
  2.4938470634E-02   3.8241071398E+00   3.8243381177E+00
  3.7590572139E+00   3.8008600338E+00   1.5162768565E+01
  7.6310410256E+00   3.7292199402E+00   3.6748717676E+00
  1.1346067051E+01   3.7777945411E+00   1.5123382670E+01
  2.9469152187E-01   1.1351394172E+01   3.8217160573E+00
  3.7274196178E+00   1.1395290803E+01   4.8695034159E-01
  7.6271081452E+00   1.1435895068E+01   3.8147906134E+00
  1.1254312491E+01   1.1371157649E+01   1.1204255323E-02
  4.0914909185E-02   3.7491758385E+00   1.1301599157E+01
  3.7945647018E+00   3.7480013011E+00   7.6618038820E+00
  7.6502086228E+00   3.7686185081E+00   1.1391113022E+01
  1.1333840100E+01   3.8339095613E+00   7.6277079589E+00
  2.9112674755E-01   1.1379720329E+01   1.1392007162E+01
  3.7650742673E+00   1.1295170504E+01   7.9795711551E+00
  7.6222099614E+00   1.1451286684E+01   1.1452710310E+01
  1.1422675328E+01   1.1383469525E+01   7.6182710000E+00
:V(Bohr/atu):
 -3.7677552242E-05   5.6228632590E-04   3.1725911113E-04
  4.3410376051E-05  -5.3126754066E-05   3.7283225687E-04
  4.6290240782E-04  -2.7150276612E-04  -2.4261131417E-04
 -2.3985429003E-04  -3.7419176459E-05  -3.2053157969E-04
  2.0878620778E-04   3.4527262928E-04  -3.1533171741E-05
 -1.3880796372E-04   3.2628260873E-04  -5.1664215375E-05
 -5.8745364865E-04  -3.8206742613E-04   2.0242632883E-04
  2.0899868984E-05   1.4178179548E-04   2.8188072680E-04
  2.9049681441E-04  -2.8696851895E-04   9.9350318798E-05
 -3.1710808274E-04   4.2662553624E-05  -4.5211481312E-04
  1.0727654588E-05   7.3469348667E-05  -2.3903149763E-04
  7.2192038301E-05  -2.8365862031E-04   3.2729928388E-04
  4.0481381257E-04   2.1873974355E-05   2.7534706301E-04
  5.6159096202E-04   3.0494936620E-04  -5.1060383156E-05
 -5.2236483000E-04   4.6797441470E-04  -2.1295811995E-04
  3.1933835974E-05  -5.7422764231E-04  -4.5687447726E-05
  1.1121840387E-04   1.3643553405E-04   1.4407832235E-04
 -1.5455761766E-04   3.4978913171E-05  -2.5486025324E-05
  2.1118053812E-04  -2.8806911064E-04  -5.5082403398E-04
 -1.6373495013E-04  -6.2784184773E-05  -2.2915067738E-04
 -8.4154911152E-06  -1.2885958840E-04   1.0865412186E-04
 -3.1046461477E-04   6.7598015317E-05  -5.3633315892E-05
  2.0415461864E-04   2.5379826437E-04   5.7372229970E-05
 -5.9851141755E-04  -3.0725813711E-05   8.0940281063E-05
  1.8463347634E-04  -1.9561261297E-04  -3.5712942884E-04
 -1.8129251118E-06  -2.0421413802E-04   3.6187606587E-04
  3.0290099323E-04  -1.0821158675E-04   4.4160660992E-05
 -2.0809177296E-04   1.8473452073E-04   1.8312688316E-04
 -3.1960625521E-05   1.5865470827E-06   2.5088352749E-05
 -1.5631715548E-04  -3.8465387442E-04  -4.8536648457E-04
  1.9108928222E-04   3.2341090857E-04   2.9744623694E-04
  1.7459338240E-04   1.8627121182E-05   1.7864964745E-04
:NPT_NH_QMASS: 4
 4000 4000 4000 4000
:NPT_NH_BMASS: 250000
:NPT_NH_vlogs: 4
 -0.000151348448178761 -0.000175850772770293 -0.000175948065501759 -0.000174097050341682
:NPT_NH_vlogv: -8.45268761143387e-05
:NPT_NH_xlogs: 4
 -0.0182752853605185 -0.0174496676478808 -0.0174580634902622 -0.0173686576585442
:LATVEC_SCALE: 15.1725591964844 15.1725591964844 15.1725591964844
:TTHRMI(K): 1120
:TARGET_PRESSURE: 0 GPa
:TEL(K): 1120
:TIO(K): 1141.57712845619
