S     ONCVPSP-4.0.1  r_core=   2.12370   1.51011
     16.0000      6.0000      200312    zatom,zion,pspd
     8      11   1     4   600     0    pspcod,pspxc,lmax,lloc,mmax,r2well
  5.99000000  0.00000000  0.00000000    rchrg fchrg qchrg
     2     2     0     0     0    nproj
     1     1           extension_switch
   0                         1.0145688569383E+01  6.6885665289030E-01
     1  0.0000000000000E+00  7.6098183310336E-11 -1.6636989008667E-10
     2  1.0000000000000E-02  3.7879773817238E-02 -2.9947740826816E-02
     3  2.0000000000000E-02  7.5766968131851E-02 -5.9857006130352E-02
     4  3.0000000000000E-02  1.1366864733424E-01 -8.9688944719146E-02
     5  4.0000000000000E-02  1.5159116646528E-01 -1.1940395904134E-01
     6  5.0000000000000E-02  1.8953982368342E-01 -1.4896134440208E-01
     7  6.0000000000000E-02  2.2751852124790E-01 -1.7831894293997E-01
     8  7.0000000000000E-02  2.6552943776742E-01 -2.0743281708607E-01
     9  8.0000000000000E-02  3.0357271438706E-01 -2.3625694706308E-01
    10  9.0000000000000E-02  3.4164615749264E-01 -2.6474295677616E-01
    11  1.0000000000000E-01  3.7974496039933E-01 -2.9283987220386E-01
    12  1.1000000000000E-01  4.1786144636323E-01 -3.2049391611719E-01
    13  1.2000000000000E-01  4.5598483510988E-01 -3.4764834264127E-01
    14  1.3000000000000E-01  4.9410103491371E-01 -3.7424331482735E-01
    15  1.4000000000000E-01  5.3219246208895E-01 -4.0021582802737E-01
    16  1.5000000000000E-01  5.7023788956528E-01 -4.2549968146018E-01
    17  1.6000000000000E-01  6.0821232602277E-01 -4.5002549993156E-01
    18  1.7000000000000E-01  6.4608692685143E-01 -4.7372080722189E-01
    19  1.8000000000000E-01  6.8382893798162E-01 -4.9651015218894E-01
    20  1.9000000000000E-01  7.2140167340505E-01 -5.1831528815285E-01
    21  2.0000000000000E-01  7.5876452697301E-01 -5.3905540563770E-01
    22  2.1000000000000E-01  7.9587301881984E-01 -5.5864741804475E-01
    23  2.2000000000000E-01  8.3267887651807E-01 -5.7700629932858E-01
    24  2.3000000000000E-01  8.6913015082782E-01 -5.9404547224316E-01
    25  2.4000000000000E-01  9.0517136565834E-01 -6.0967724522396E-01
    26  2.5000000000000E-01  9.4074370161677E-01 -6.2381329547889E-01
    27  2.6000000000000E-01  9.7578521227785E-01 -6.3636519537731E-01
    28  2.7000000000000E-01  1.0102310720724E+00 -6.4724497875850E-01
    29  2.8000000000000E-01  1.0440138544608E+00 -6.5636574332959E-01
    30  2.9000000000000E-01  1.0770638388343E+00 -6.6364228489534E-01
    31  3.0000000000000E-01  1.1093093443715E+00 -6.6899175875680E-01
    32  3.1000000000000E-01  1.1406770888721E+00 -6.7233436324132E-01
    33  3.2000000000000E-01  1.1710925703969E+00 -6.7359403998245E-01
    34  3.3000000000000E-01  1.2004804693588E+00 -6.7269918525741E-01
    35  3.4000000000000E-01  1.2287650685465E+00 -6.6958336641909E-01
    36  3.5000000000000E-01  1.2558706884058E+00 -6.6418603722645E-01
    37  3.6000000000000E-01  1.2817221347689E+00 -6.5645324568714E-01
    38  3.7000000000000E-01  1.3062451561019E+00 -6.4633832788140E-01
    39  3.8000000000000E-01  1.3293669072390E+00 -6.3380258113671E-01
    40  3.9000000000000E-01  1.3510164164890E+00 -6.1881590987308E-01
    41  4.0000000000000E-01  1.3711250529334E+00 -6.0135743743651E-01
    42  4.1000000000000E-01  1.3896269906953E+00 -5.8141607728943E-01
    43  4.2000000000000E-01  1.4064596669306E+00 -5.5899105702746E-01
    44  4.3000000000000E-01  1.4215642302922E+00 -5.3409238884606E-01
    45  4.4000000000000E-01  1.4348859766325E+00 -5.0674128028694E-01
    46  4.5000000000000E-01  1.4463747687525E+00 -4.7697047935311E-01
    47  4.6000000000000E-01  1.4559854370603E+00 -4.4482454839261E-01
    48  4.7000000000000E-01  1.4636781580846E+00 -4.1036006151396E-01
    49  4.8000000000000E-01  1.4694188078892E+00 -3.7364572070996E-01
    50  4.9000000000000E-01  1.4731792875547E+00 -3.3476238632984E-01
    51  5.0000000000000E-01  1.4749378180347E+00 -2.9380301805083E-01
    52  5.1000000000000E-01  1.4746792018522E+00 -2.5087252305857E-01
    53  5.2000000000000E-01  1.4723950492820E+00 -2.0608750874671E-01
    54  5.3000000000000E-01  1.4680839668589E+00 -1.5957593789052E-01
    55  5.4000000000000E-01  1.4617517062641E+00 -1.1147668493272E-01
    56  5.5000000000000E-01  1.4534112718706E+00 -6.1938992738286E-02
    57  5.6000000000000E-01  1.4430829854723E+00 -1.1121829929590E-02
    58  5.7000000000000E-01  1.4307945069745E+00  4.0806850305573E-02
    59  5.8000000000000E-01  1.4165808100960E+00  9.3670948228662E-02
    60  5.9000000000000E-01  1.4004841124090E+00  1.4728714985330E-01
    61  6.0000000000000E-01  1.3825537593343E+00  2.0146595014805E-01
    62  6.1000000000000E-01  1.3628460620047E+00  2.5601276288685E-01
    63  6.2000000000000E-01  1.3414240892141E+00  3.1072911201557E-01
    64  6.3000000000000E-01  1.3183574139773E+00  3.6541389852199E-01
    65  6.4000000000000E-01  1.2937218155395E+00  4.1986473590953E-01
    66  6.5000000000000E-01  1.2675989379868E+00  4.7387934649331E-01
    67  6.6000000000000E-01  1.2400759069230E+00  5.2725700986141E-01
    68  6.7000000000000E-01  1.2112449059939E+00  5.7980005397965E-01
    69  6.8000000000000E-01  1.1812027153457E+00  6.3131537857163E-01
    70  6.9000000000000E-01  1.1500502144138E+00  6.8161599957787E-01
    71  7.0000000000000E-01  1.1178918517348E+00  7.3052260269695E-01
    72  7.1000000000000E-01  1.0848350847655E+00  7.7786509324033E-01
    73  7.2000000000000E-01  1.0509897929780E+00  8.2348412879384E-01
    74  7.3000000000000E-01  1.0164676677666E+00  8.6723262048149E-01
    75  7.4000000000000E-01  9.8138158296438E-01  9.0897718796891E-01
    76  7.5000000000000E-01  9.4584495001121E-01  9.4859955273543E-01
    77  7.6000000000000E-01  9.0997106204521E-01  9.8599785358280E-01
    78  7.7000000000000E-01  8.7387243140301E-01  1.0210878678431E+00
    79  7.8000000000000E-01  8.3766012521126E-01  1.0538041212989E+00
    80  7.9000000000000E-01  8.0144310392895E-01  1.0841008694407E+00
    81  8.0000000000000E-01  7.6532756785831E-01  1.1119529323589E+00
    82  8.1000000000000E-01  7.2941631677999E-01  1.1373563653088E+00
    83  8.2000000000000E-01  6.9380812798404E-01  1.1603289467913E+00
    84  8.3000000000000E-01  6.5859715806323E-01  1.1809104658698E+00
    85  8.4000000000000E-01  6.2387237390630E-01  1.1991627903894E+00
    86  8.5000000000000E-01  5.8971701837843E-01  1.2151696977809E+00
    87  8.6000000000000E-01  5.5620811620067E-01  1.2290364502259E+00
    88  8.7000000000000E-01  5.2341602554290E-01  1.2408890961201E+00
    89  8.8000000000000E-01  4.9140404082239E-01  1.2508734800079E+00
    90  8.9000000000000E-01  4.6022805215505E-01  1.2591539434715E+00
    91  9.0000000000000E-01  4.2993626683742E-01  1.2659116998348E+00
    92  9.1000000000000E-01  4.0056899814544E-01  1.2713428659945E+00
    93  9.2000000000000E-01  3.7215852662113E-01  1.2756561352077E+00
    94  9.3000000000000E-01  3.4472903888149E-01  1.2790700752496E+00
    95  9.4000000000000E-01  3.1829664890761E-01  1.2818100376872E+00
    96  9.5000000000000E-01  2.9286950297548E-01  1.2841046351590E+00
    97  9.6000000000000E-01  2.6844787176632E-01  1.2861809309969E+00
    98  9.7000000000000E-01  2.4502135139849E-01  1.2882318332031E+00
    99  9.8000000000000E-01  2.2256505858498E-01  1.2903577970395E+00
   100  9.9000000000000E-01  2.0104262557166E-01  1.2925521394885E+00
   101  1.0000000000000E+00  1.8041117834717E-01  1.2947070655151E+00
   102  1.0100000000000E+00  1.6062636493699E-01  1.2966304953040E+00
   103  1.0200000000000E+00  1.4164675767856E-01  1.2980707556454E+00
   104  1.0300000000000E+00  1.2343712773830E-01  1.2987451253229E+00
   105  1.0400000000000E+00  1.0597033999288E-01  1.2983680080164E+00
   106  1.0500000000000E+00  8.9227879974907E-02  1.2966751618140E+00
   107  1.0600000000000E+00  7.3199238287465E-02  1.2934416624681E+00
   108  1.0700000000000E+00  5.7880503129462E-02  1.2884927292373E+00
   109  1.0800000000000E+00  4.3272540542534E-02  1.2817078152470E+00
   110  1.0900000000000E+00  2.9379095135262E-02  1.2730192308672E+00
   111  1.1000000000000E+00  1.6205053724995E-02  1.2624069599266E+00
   112  1.1100000000000E+00  3.7550139109486E-03  1.2498913206104E+00
   113  1.1200000000000E+00 -7.9677885017342E-03  1.2355248537674E+00
   114  1.1300000000000E+00 -1.8962202672766E-02  1.2193844401646E+00
   115  1.1400000000000E+00 -2.9229583756159E-02  1.2015642628714E+00
   116  1.1500000000000E+00 -3.8773975038585E-02  1.1821699114044E+00
   117  1.1600000000000E+00 -4.7602115526605E-02  1.1613136916210E+00
   118  1.1700000000000E+00 -5.5723329810226E-02  1.1391110605527E+00
   119  1.1800000000000E+00 -6.3149345775145E-02  1.1156780296348E+00
   120  1.1900000000000E+00 -6.9894074160009E-02  1.0911293542743E+00
   121  1.2000000000000E+00 -7.5973373610279E-02  1.0655773326279E+00
   122  1.2100000000000E+00 -8.1404816643234E-02  1.0391310578662E+00
   123  1.2200000000000E+00 -8.6207465764107E-02  1.0118959955603E+00
   124  1.2300000000000E+00 -9.0401664641339E-02  9.8397378572631E-01
   125  1.2400000000000E+00 -9.4008846384237E-02  9.5546219352977E-01
   126  1.2500000000000E+00 -9.7051359155552E-02  9.2645515317759E-01
   127  1.2600000000000E+00 -9.9552308302783E-02  8.9704286539608E-01
   128  1.2700000000000E+00 -1.0153541371860E-01  8.6731192247250E-01
   129  1.2800000000000E+00 -1.0302488050786E-01  8.3734543606182E-01
   130  1.2900000000000E+00 -1.0404528226011E-01  8.0722317350302E-01
   131  1.3000000000000E+00 -1.0462145366304E-01  7.7702166256339E-01
   132  1.3100000000000E+00 -1.0477839313329E-01  7.4681430004849E-01
   133  1.3200000000000E+00 -1.0454117243577E-01  7.1667142902055E-01
   134  1.3300000000000E+00 -1.0393485317338E-01  6.8666040229165E-01
   135  1.3400000000000E+00 -1.0298440885822E-01  6.5684562608328E-01
   136  1.3500000000000E+00 -1.0171465186545E-01  6.2728858642754E-01
   137  1.3600000000000E+00 -1.0015016463101E-01  5.9804785982607E-01
   138  1.3700000000000E+00 -9.8315234603435E-02  5.6917911027487E-01
   139  1.3800000000000E+00 -9.6233792570741E-02  5.4073507484558E-01
   140  1.3900000000000E+00 -9.3929354109867E-02  5.1276554040495E-01
   141  1.4000000000000E+00 -9.1424963968671E-02  4.8531731371851E-01
   142  1.4100000000000E+00 -8.8743143301196E-02  4.5843418758208E-01
   143  1.4200000000000E+00 -8.5905839714420E-02  4.3215690521611E-01
   144  1.4300000000000E+00 -8.2934380147637E-02  4.0652312518890E-01
   145  1.4400000000000E+00 -7.9849426644594E-02  3.8156738898167E-01
   146  1.4500000000000E+00 -7.6670935104328E-02  3.5732109309501E-01
   147  1.4600000000000E+00 -7.3418117102706E-02  3.3381246728091E-01
   148  1.4700000000000E+00 -7.0109404911250E-02  3.1106656053566E-01
   149  1.4800000000000E+00 -6.6762419813906E-02  2.8910523597794E-01
   150  1.4900000000000E+00 -6.3393943826119E-02  2.6794717561084E-01
   151  1.5000000000000E+00 -6.0019894928767E-02  2.4760789592217E-01
   152  1.5100000000000E+00 -5.6655305874827E-02  2.2809977466601E-01
   153  1.5200000000000E+00 -5.3314306655374E-02  2.0943208941499E-01
   154  1.5300000000000E+00 -5.0010110652168E-02  1.9161106789643E-01
   155  1.5400000000000E+00 -4.6755004516802E-02  1.7463995026601E-01
   156  1.5500000000000E+00 -4.3560341754517E-02  1.5851906294000E-01
   157  1.5600000000000E+00 -4.0436540019733E-02  1.4324590392474E-01
   158  1.5700000000000E+00 -3.7393082059415E-02  1.2881523900212E-01
   159  1.5800000000000E+00 -3.4438520242246E-02  1.1521920822707E-01
   160  1.5900000000000E+00 -3.1580484605796E-02  1.0244744221070E-01
   161  1.6000000000000E+00 -2.8825694294694E-02  9.0487187231503E-02
   162  1.6100000000000E+00 -2.6179972284236E-02  7.9323438480878E-02
   163  1.6200000000000E+00 -2.3648263245156E-02  6.8939080500133E-02
   164  1.6300000000000E+00 -2.1234654404201E-02  5.9315033928768E-02
   165  1.6400000000000E+00 -1.8942399220496E-02  5.0430407478053E-02
   166  1.6500000000000E+00 -1.6773943715937E-02  4.2262654259215E-02
   167  1.6600000000000E+00 -1.4730955273868E-02  3.4787731465522E-02
   168  1.6700000000000E+00 -1.2814353693117E-02  2.7980262255476E-02
   169  1.6800000000000E+00 -1.1024344324045E-02  2.1813699054167E-02
   170  1.6900000000000E+00 -9.3604530605112E-03  1.6260487126628E-02
   171  1.7000000000000E+00 -7.8215630003578E-03  1.1292227626407E-02
   172  1.7100000000000E+00 -6.4059525419388E-03  6.8798390202926E-03
   173  1.7200000000000E+00 -5.1113347313002E-03  2.9937161886594E-03
   174  1.7300000000000E+00 -3.9348976475119E-03 -3.9611367304827E-04
   175  1.7400000000000E+00 -2.8733456096343E-03 -3.3198392225797E-03
   176  1.7500000000000E+00 -1.9229410180693E-03 -5.8077178339438E-03
   177  1.7600000000000E+00 -1.0795466442713E-03 -7.8899337532371E-03
   178  1.7700000000000E+00 -3.3866815256335E-04 -9.5964623446857E-03
   179  1.7800000000000E+00  3.0450330042083E-04 -1.0956940758022E-02
   180  1.7900000000000E+00  8.5504857389801E-04 -1.2000545559908E-02
   181  1.8000000000000E+00  1.3182783220834E-03 -1.2755877707122E-02
   182  1.8100000000000E+00  1.6996911985773E-03 -1.3250855164365E-02
   183  1.8200000000000E+00  2.0049326410795E-03 -1.3512613474492E-02
   184  1.8300000000000E+00  2.2397543525355E-03 -1.3567414311179E-02
   185  1.8400000000000E+00  2.4099746211793E-03 -1.3440562233703E-02
   186  1.8500000000000E+00  2.5214395997309E-03 -1.3156329708701E-02
   187  1.8600000000000E+00  2.5799856246164E-03 -1.2737890197657E-02
   188  1.8700000000000E+00  2.5914026860018E-03 -1.2207259326840E-02
   189  1.8800000000000E+00  2.5613991400724E-03 -1.1585244029415E-02
   190  1.8900000000000E+00  2.4955677125007E-03 -1.0891399272894E-02
   191  1.9000000000000E+00  2.3993528777502E-03 -1.0143992242712E-02
   192  1.9100000000000E+00  2.2780196539341E-03 -9.3599735635954E-03
   193  1.9200000000000E+00  2.1366238638418E-03 -8.5549552303604E-03
   194  1.9300000000000E+00  1.9799839027321E-03 -7.7431948722185E-03
   195  1.9400000000000E+00  1.8126540204539E-03 -6.9375857728091E-03
   196  1.9500000000000E+00  1.6388991531194E-03 -6.1496522769607E-03
   197  1.9600000000000E+00  1.4626713186579E-03 -5.3895500954059E-03
   198  1.9700000000000E+00  1.2875875681840E-03 -4.6660708972693E-03
   199  1.9800000000000E+00  1.1169103901948E-03 -3.9866547457654E-03
   200  1.9900000000000E+00  9.5352304976052E-04 -3.3573757385995E-03
   201  2.0000000000000E+00  7.9992686216790E-04 -2.7830227350875E-03
   202  2.0100000000000E+00  6.5820994237894E-04 -2.2670456312909E-03
   203  2.0200000000000E+00  5.2989930168866E-04 -1.8109724250690E-03
   204  2.0300000000000E+00  4.1501887116646E-04 -1.4101538595104E-03
   205  2.0400000000000E+00  3.1394072445568E-04 -1.0622530029550E-03
   206  2.0500000000000E+00  2.2765362582105E-04 -7.6858651527198E-04
   207  2.0600000000000E+00  1.5647249508591E-04 -5.2835640027636E-04
   208  2.0700000000000E+00  1.0023154243821E-04 -3.3955894822057E-04
   209  2.0800000000000E+00  5.8238872600488E-05 -1.9881734169008E-04
   210  2.0900000000000E+00  2.9268778836297E-05 -1.0137965930199E-04
   211  2.1000000000000E+00  1.1553628629408E-05 -4.1078610928661E-05
   212  2.1100000000000E+00  2.7847622619245E-06 -1.0403153916746E-05
   213  2.1200000000000E+00  1.4454205475800E-07 -6.0084582771487E-07
   214  2.1300000000000E+00 -5.7109781630014E-08  2.8659047043132E-07
   215  2.1400000000000E+00  2.1977045361175E-08 -9.4409853217883E-08
   216  2.15 -0.  0.
   217  2.16 -0.  0.
   218  2.17  0. -0.
   219  2.18  0.  0.
   220  2.19  0.  0.
   221  2.20  0.  0.
   222  2.21  0.  0.
   223  2.22  0.  0.
   224  2.23  0.  0.
   225  2.24  0.  0.
   226  2.25  0.  0.
   227  2.26  0.  0.
   228  2.27  0.  0.
   229  2.28  0.  0.
   230  2.29  0.  0.
   231  2.30  0.  0.
   232  2.31  0.  0.
   233  2.32  0.  0.
   234  2.33  0.  0.
   235  2.34  0.  0.
   236  2.35  0.  0.
   237  2.36  0.  0.
   238  2.37  0.  0.
   239  2.38  0.  0.
   240  2.39  0.  0.
   241  2.40  0.  0.
   242  2.41  0.  0.
   243  2.42  0.  0.
   244  2.43  0.  0.
   245  2.44  0.  0.
   246  2.45  0.  0.
   247  2.46  0.  0.
   248  2.47  0.  0.
   249  2.48  0.  0.
   250  2.49  0.  0.
   251  2.50  0.  0.
   252  2.51  0.  0.
   253  2.52  0.  0.
   254  2.53  0.  0.
   255  2.54  0.  0.
   256  2.55  0.  0.
   257  2.56  0.  0.
   258  2.57  0.  0.
   259  2.58  0.  0.
   260  2.59  0.  0.
   261  2.60  0.  0.
   262  2.61  0.  0.
   263  2.62  0.  0.
   264  2.63  0.  0.
   265  2.64  0.  0.
   266  2.65  0.  0.
   267  2.66  0.  0.
   268  2.67  0.  0.
   269  2.68  0.  0.
   270  2.69  0.  0.
   271  2.70  0.  0.
   272  2.71  0.  0.
   273  2.72  0.  0.
   274  2.73  0.  0.
   275  2.74  0.  0.
   276  2.75  0.  0.
   277  2.76  0.  0.
   278  2.77  0.  0.
   279  2.78  0.  0.
   280  2.79  0.  0.
   281  2.80  0.  0.
   282  2.81  0.  0.
   283  2.82  0.  0.
   284  2.83  0.  0.
   285  2.84  0.  0.
   286  2.85  0.  0.
   287  2.86  0.  0.
   288  2.87  0.  0.
   289  2.88  0.  0.
   290  2.89  0.  0.
   291  2.90  0.  0.
   292  2.91  0.  0.
   293  2.92  0.  0.
   294  2.93  0.  0.
   295  2.94  0.  0.
   296  2.95  0.  0.
   297  2.96  0.  0.
   298  2.97  0.  0.
   299  2.98  0.  0.
   300  2.99  0.  0.
   301  3.00  0.  0.
   302  3.01  0.  0.
   303  3.02  0.  0.
   304  3.03  0.  0.
   305  3.04  0.  0.
   306  3.05  0.  0.
   307  3.06  0.  0.
   308  3.07  0.  0.
   309  3.08  0.  0.
   310  3.09  0.  0.
   311  3.10  0.  0.
   312  3.11  0.  0.
   313  3.12  0.  0.
   314  3.13  0.  0.
   315  3.14  0.  0.
   316  3.15  0.  0.
   317  3.16  0.  0.
   318  3.17  0.  0.
   319  3.18  0.  0.
   320  3.19  0.  0.
   321  3.20  0.  0.
   322  3.21  0.  0.
   323  3.22  0.  0.
   324  3.23  0.  0.
   325  3.24  0.  0.
   326  3.25  0.  0.
   327  3.26  0.  0.
   328  3.27  0.  0.
   329  3.28  0.  0.
   330  3.29  0.  0.
   331  3.30  0.  0.
   332  3.31  0.  0.
   333  3.32  0.  0.
   334  3.33  0.  0.
   335  3.34  0.  0.
   336  3.35  0.  0.
   337  3.36  0.  0.
   338  3.37  0.  0.
   339  3.38  0.  0.
   340  3.39  0.  0.
   341  3.40  0.  0.
   342  3.41  0.  0.
   343  3.42  0.  0.
   344  3.43  0.  0.
   345  3.44  0.  0.
   346  3.45  0.  0.
   347  3.46  0.  0.
   348  3.47  0.  0.
   349  3.48  0.  0.
   350  3.49  0.  0.
   351  3.50  0.  0.
   352  3.51  0.  0.
   353  3.52  0.  0.
   354  3.53  0.  0.
   355  3.54  0.  0.
   356  3.55  0.  0.
   357  3.56  0.  0.
   358  3.57  0.  0.
   359  3.58  0.  0.
   360  3.59  0.  0.
   361  3.60  0.  0.
   362  3.61  0.  0.
   363  3.62  0.  0.
   364  3.63  0.  0.
   365  3.64  0.  0.
   366  3.65  0.  0.
   367  3.66  0.  0.
   368  3.67  0.  0.
   369  3.68  0.  0.
   370  3.69  0.  0.
   371  3.70  0.  0.
   372  3.71  0.  0.
   373  3.72  0.  0.
   374  3.73  0.  0.
   375  3.74  0.  0.
   376  3.75  0.  0.
   377  3.76  0.  0.
   378  3.77  0.  0.
   379  3.78  0.  0.
   380  3.79  0.  0.
   381  3.80  0.  0.
   382  3.81  0.  0.
   383  3.82  0.  0.
   384  3.83  0.  0.
   385  3.84  0.  0.
   386  3.85  0.  0.
   387  3.86  0.  0.
   388  3.87  0.  0.
   389  3.88  0.  0.
   390  3.89  0.  0.
   391  3.90  0.  0.
   392  3.91  0.  0.
   393  3.92  0.  0.
   394  3.93  0.  0.
   395  3.94  0.  0.
   396  3.95  0.  0.
   397  3.96  0.  0.
   398  3.97  0.  0.
   399  3.98  0.  0.
   400  3.99  0.  0.
   401  4.00  0.  0.
   402  4.01  0.  0.
   403  4.02  0.  0.
   404  4.03  0.  0.
   405  4.04  0.  0.
   406  4.05  0.  0.
   407  4.06  0.  0.
   408  4.07  0.  0.
   409  4.08  0.  0.
   410  4.09  0.  0.
   411  4.10  0.  0.
   412  4.11  0.  0.
   413  4.12  0.  0.
   414  4.13  0.  0.
   415  4.14  0.  0.
   416  4.15  0.  0.
   417  4.16  0.  0.
   418  4.17  0.  0.
   419  4.18  0.  0.
   420  4.19  0.  0.
   421  4.20  0.  0.
   422  4.21  0.  0.
   423  4.22  0.  0.
   424  4.23  0.  0.
   425  4.24  0.  0.
   426  4.25  0.  0.
   427  4.26  0.  0.
   428  4.27  0.  0.
   429  4.28  0.  0.
   430  4.29  0.  0.
   431  4.30  0.  0.
   432  4.31  0.  0.
   433  4.32  0.  0.
   434  4.33  0.  0.
   435  4.34  0.  0.
   436  4.35  0.  0.
   437  4.36  0.  0.
   438  4.37  0.  0.
   439  4.38  0.  0.
   440  4.39  0.  0.
   441  4.40  0.  0.
   442  4.41  0.  0.
   443  4.42  0.  0.
   444  4.43  0.  0.
   445  4.44  0.  0.
   446  4.45  0.  0.
   447  4.46  0.  0.
   448  4.47  0.  0.
   449  4.48  0.  0.
   450  4.49  0.  0.
   451  4.50  0.  0.
   452  4.51  0.  0.
   453  4.52  0.  0.
   454  4.53  0.  0.
   455  4.54  0.  0.
   456  4.55  0.  0.
   457  4.56  0.  0.
   458  4.57  0.  0.
   459  4.58  0.  0.
   460  4.59  0.  0.
   461  4.60  0.  0.
   462  4.61  0.  0.
   463  4.62  0.  0.
   464  4.63  0.  0.
   465  4.64  0.  0.
   466  4.65  0.  0.
   467  4.66  0.  0.
   468  4.67  0.  0.
   469  4.68  0.  0.
   470  4.69  0.  0.
   471  4.70  0.  0.
   472  4.71  0.  0.
   473  4.72  0.  0.
   474  4.73  0.  0.
   475  4.74  0.  0.
   476  4.75  0.  0.
   477  4.76  0.  0.
   478  4.77  0.  0.
   479  4.78  0.  0.
   480  4.79  0.  0.
   481  4.80  0.  0.
   482  4.81  0.  0.
   483  4.82  0.  0.
   484  4.83  0.  0.
   485  4.84  0.  0.
   486  4.85  0.  0.
   487  4.86  0.  0.
   488  4.87  0.  0.
   489  4.88  0.  0.
   490  4.89  0.  0.
   491  4.90  0.  0.
   492  4.91  0.  0.
   493  4.92  0.  0.
   494  4.93  0.  0.
   495  4.94  0.  0.
   496  4.95  0.  0.
   497  4.96  0.  0.
   498  4.97  0.  0.
   499  4.98  0.  0.
   500  4.99  0.  0.
   501  5.00  0.  0.
   502  5.01  0.  0.
   503  5.02  0.  0.
   504  5.03  0.  0.
   505  5.04  0.  0.
   506  5.05  0.  0.
   507  5.06  0.  0.
   508  5.07  0.  0.
   509  5.08  0.  0.
   510  5.09  0.  0.
   511  5.10  0.  0.
   512  5.11  0.  0.
   513  5.12  0.  0.
   514  5.13  0.  0.
   515  5.14  0.  0.
   516  5.15  0.  0.
   517  5.16  0.  0.
   518  5.17  0.  0.
   519  5.18  0.  0.
   520  5.19  0.  0.
   521  5.20  0.  0.
   522  5.21  0.  0.
   523  5.22  0.  0.
   524  5.23  0.  0.
   525  5.24  0.  0.
   526  5.25  0.  0.
   527  5.26  0.  0.
   528  5.27  0.  0.
   529  5.28  0.  0.
   530  5.29  0.  0.
   531  5.30  0.  0.
   532  5.31  0.  0.
   533  5.32  0.  0.
   534  5.33  0.  0.
   535  5.34  0.  0.
   536  5.35  0.  0.
   537  5.36  0.  0.
   538  5.37  0.  0.
   539  5.38  0.  0.
   540  5.39  0.  0.
   541  5.40  0.  0.
   542  5.41  0.  0.
   543  5.42  0.  0.
   544  5.43  0.  0.
   545  5.44  0.  0.
   546  5.45  0.  0.
   547  5.46  0.  0.
   548  5.47  0.  0.
   549  5.48  0.  0.
   550  5.49  0.  0.
   551  5.50  0.  0.
   552  5.51  0.  0.
   553  5.52  0.  0.
   554  5.53  0.  0.
   555  5.54  0.  0.
   556  5.55  0.  0.
   557  5.56  0.  0.
   558  5.57  0.  0.
   559  5.58  0.  0.
   560  5.59  0.  0.
   561  5.60  0.  0.
   562  5.61  0.  0.
   563  5.62  0.  0.
   564  5.63  0.  0.
   565  5.64  0.  0.
   566  5.65  0.  0.
   567  5.66  0.  0.
   568  5.67  0.  0.
   569  5.68  0.  0.
   570  5.69  0.  0.
   571  5.70  0.  0.
   572  5.71  0.  0.
   573  5.72  0.  0.
   574  5.73  0.  0.
   575  5.74  0.  0.
   576  5.75  0.  0.
   577  5.76  0.  0.
   578  5.77  0.  0.
   579  5.78  0.  0.
   580  5.79  0.  0.
   581  5.80  0.  0.
   582  5.81  0.  0.
   583  5.82  0.  0.
   584  5.83  0.  0.
   585  5.84  0.  0.
   586  5.85  0.  0.
   587  5.86  0.  0.
   588  5.87  0.  0.
   589  5.88  0.  0.
   590  5.89  0.  0.
   591  5.90  0.  0.
   592  5.91  0.  0.
   593  5.92  0.  0.
   594  5.93  0.  0.
   595  5.94  0.  0.
   596  5.95  0.  0.
   597  5.96  0.  0.
   598  5.97  0.  0.
   599  5.98  0.  0.
   600  5.99  0.  0.
   1                         7.1625102728667E+00  2.1646854611166E+00
     1  0.0000000000000E+00 -3.6364328048766E-08  4.7461905433588E-08
     2  1.0000000000000E-02 -1.2733695922697E-03  3.2437337415362E-03
     3  2.0000000000000E-02 -5.0491790800266E-03  1.2913340624313E-02
     4  3.0000000000000E-02 -1.1195546698651E-02  2.8825368669124E-02
     5  4.0000000000000E-02 -1.9496034961771E-02  5.0678473251099E-02
     6  5.0000000000000E-02 -2.9654623836762E-02  7.8059932160925E-02
     7  6.0000000000000E-02 -4.1302524722513E-02  1.1045457281548E-01
     8  7.0000000000000E-02 -5.4006690337348E-02  1.4725592242660E-01
     9  8.0000000000000E-02 -6.7279839260634E-02  1.8777934447461E-01
    10  9.0000000000000E-02 -8.0591781152085E-02  2.3127688214504E-01
    11  1.0000000000000E-01 -9.3381800266721E-02  2.7695349234604E-01
    12  1.1000000000000E-01 -1.0507183137755E-01  3.2398432330034E-01
    13  1.2000000000000E-01 -1.1508014410653E-01  3.7153266514195E-01
    14  1.3000000000000E-01 -1.2283523933910E-01  4.1876818695824E-01
    15  1.4000000000000E-01 -1.2778965513866E-01  4.6488506566548E-01
    16  1.5000000000000E-01 -1.2943337954938E-01  5.0911961220400E-01
    17  1.6000000000000E-01 -1.2730657392093E-01  5.5076700884023E-01
    18  1.7000000000000E-01 -1.2101132282701E-01  5.8919678775797E-01
    19  1.8000000000000E-01 -1.1022214507772E-01  6.2386670534261E-01
    20  1.9000000000000E-01 -9.4695024421557E-02  6.5433469818077E-01
    21  2.0000000000000E-01 -7.4274747856000E-02  6.8026864523698E-01
    22  2.1000000000000E-01 -4.8900373471574E-02  7.0145370520888E-01
    23  2.2000000000000E-01 -1.8608687794966E-02  7.1779704785211E-01
    24  2.3000000000000E-01  1.6464446059980E-02  7.2932985214264E-01
    25  2.4000000000000E-01  5.6084904288196E-02  7.3620650144458E-01
    26  2.5000000000000E-01  9.9923291730024E-02  7.3870096523615E-01
    27  2.6000000000000E-01  1.4756006786905E-01  7.3720041721731E-01
    28  2.7000000000000E-01  1.9849272676545E-01  7.3219619954990E-01
    29  2.8000000000000E-01  2.5214490342730E-01  7.2427230132211E-01
    30  2.9000000000000E-01  3.0787723646234E-01  7.1409157485805E-01
    31  3.0000000000000E-01  3.6499977721200E-01  7.0237996502186E-01
    32  3.1000000000000E-01  4.2278569980884E-01  6.8990907307070E-01
    33  3.2000000000000E-01  4.8048603551120E-01  6.7747741685580E-01
    34  3.3000000000000E-01  5.3734512896584E-01  6.6589078232970E-01
    35  3.4000000000000E-01  5.9261649434197E-01  6.5594208659606E-01
    36  3.5000000000000E-01  6.4557873606643E-01  6.4839118949044E-01
    37  3.6000000000000E-01  6.9555119254135E-01  6.4394509842732E-01
    38  3.7000000000000E-01  7.4190896197962E-01  6.4323900968915E-01
    39  3.8000000000000E-01  7.8409697744238E-01  6.4681861835516E-01
    40  3.9000000000000E-01  8.2164281325157E-01  6.5512410875312E-01
    41  4.0000000000000E-01  8.5416792697573E-01  6.6847620794400E-01
    42  4.1000000000000E-01  8.8139706979505E-01  6.8706464679105E-01
    43  4.2000000000000E-01  9.0316563274639E-01  7.1093932728049E-01
    44  4.3000000000000E-01  9.1942473649804E-01  7.4000444179228E-01
    45  4.4000000000000E-01  9.3024391714854E-01  7.7401573096640E-01
    46  4.5000000000000E-01  9.3581130921537E-01  8.1258100282416E-01
    47  4.6000000000000E-01  9.3643127850974E-01  8.5516396815713E-01
    48  4.7000000000000E-01  9.3251951094256E-01  9.0109137726235E-01
    49  4.8000000000000E-01  9.2459561737190E-01  9.4956337232771E-01
    50  4.9000000000000E-01  9.1327336825209E-01  9.9966689964428E-01
    51  5.0000000000000E-01  8.9924872393351E-01  1.0503919578454E+00
    52  5.1000000000000E-01  8.8328587585989E-01  1.1006503940258E+00
    53  5.2000000000000E-01  8.6620155952387E-01  1.1492969003087E+00
    54  5.3000000000000E-01  8.4884794084165E-01  1.1951518105488E+00
    55  5.4000000000000E-01  8.3209441264927E-01  1.2370252516193E+00
    56  5.5000000000000E-01  8.1680866646977E-01  1.2737421672123E+00
    57  5.6000000000000E-01  8.0383742584363E-01  1.3041677052119E+00
    58  5.7000000000000E-01  7.9398724079075E-01  1.3272324431981E+00
    59  5.8000000000000E-01  7.8800574797780E-01  1.3419569210218E+00
    60  5.9000000000000E-01  7.8656379766927E-01  1.3474749549455E+00
    61  6.0000000000000E-01  7.9023883649228E-01  1.3430552246256E+00
    62  6.1000000000000E-01  7.9949991457709E-01  1.3281206520175E+00
    63  6.2000000000000E-01  8.1469465706469E-01  1.3022651296942E+00
    64  6.3000000000000E-01  8.3603850379699E-01  1.2652672044016E+00
    65  6.4000000000000E-01  8.6360647789329E-01  1.2171003790378E+00
    66  6.5000000000000E-01  8.9732769470037E-01  1.1579397615368E+00
    67  6.6000000000000E-01  9.3698276825607E-01  1.0881648610531E+00
    68  6.7000000000000E-01  9.8220421402654E-01  1.0083584089453E+00
    69  6.8000000000000E-01  1.0324798854729E+00  9.1930116273022E-01
    70  6.9000000000000E-01  1.0871594192454E+00  8.2196273375521E-01
    71  7.0000000000000E-01  1.1454636008357E+00  7.1748856204673E-01
    72  7.1000000000000E-01  1.2064965006757E+00  6.0718324286886E-01
    73  7.2000000000000E-01  1.2692601713218E+00  4.9249048718832E-01
    74  7.3000000000000E-01  1.3326716407860E+00  3.7497007079578E-01
    75  7.4000000000000E-01  1.3955818865332E+00  2.5627219263739E-01
    76  7.5000000000000E-01  1.4567964302798E+00  1.3810972048936E-01
    77  7.6000000000000E-01  1.5150971565395E+00  2.2228850124470E-02
    78  7.7000000000000E-01  1.5692649287205E+00 -8.9621258555233E-02
    79  7.8000000000000E-01  1.6181025562118E+00 -1.9571927922084E-01
    80  7.9000000000000E-01  1.6604576548002E+00 -2.9440234799221E-01
    81  8.0000000000000E-01  1.6952449412742E+00 -3.8409592002458E-01
    82  8.1000000000000E-01  1.7214675112920E+00 -4.6334226232780E-01
    83  8.2000000000000E-01  1.7382366674258E+00 -5.3082701595111E-01
    84  8.3000000000000E-01  1.7447898914240E+00 -5.8540329746851E-01
    85  8.4000000000000E-01  1.7405065906416E+00 -6.2611285798265E-01
    86  8.5000000000000E-01  1.7249212925497E+00 -6.5220387666088E-01
    87  8.6000000000000E-01  1.6977340123586E+00 -6.6314503391829E-01
    88  8.7000000000000E-01  1.6588175759948E+00 -6.5863558534922E-01
    89  8.8000000000000E-01  1.6082217427789E+00 -6.3861123977648E-01
    90  8.9000000000000E-01  1.5461740378115E+00 -6.0324573158670E-01
    91  9.0000000000000E-01  1.4730772719113E+00 -5.5294806699001E-01