He    ONCVPSP-4.0.1  r_core=   0.50103
      2.0000      2.0000      200306    zatom,zion,pspd
     8       2   0     0  1200     0    pspcod,pspxc,lmax,lloc,mmax,r2well
  5.99500000  0.00000000  0.00000000    rchrg fchrg qchrg
     0     0     0     0     0    nproj
     1     1           extension_switch
   0
     1  0.0000000000000E+00 -1.8579060428074E+01
     2  5.0000000000000E-03 -1.8572843236201E+01
     3  1.0000000000000E-02 -1.8554213190285E+01
     4  1.5000000000000E-02 -1.8523243808476E+01
     5  2.0000000000000E-02 -1.8480055327290E+01
     6  2.5000000000000E-02 -1.8424814467541E+01
     7  3.0000000000000E-02 -1.8357732846470E+01
     8  3.5000000000000E-02 -1.8279064965608E+01
     9  4.0000000000000E-02 -1.8189105796938E+01
    10  4.5000000000000E-02 -1.8088187994282E+01
    11  5.0000000000000E-02 -1.7976678761254E+01
    12  5.5000000000000E-02 -1.7854976411345E+01
    13  6.0000000000000E-02 -1.7723506659718E+01
    14  6.5000000000000E-02 -1.7582718689860E+01
    15  7.0000000000000E-02 -1.7433081041578E+01
    16  7.5000000000000E-02 -1.7275077369623E+01
    17  8.0000000000000E-02 -1.7109202124572E+01
    18  8.5000000000000E-02 -1.6935956209430E+01
    19  9.0000000000000E-02 -1.6755842666594E+01
    20  9.5000000000000E-02 -1.6569362450387E+01
    21  1.0000000000000E-01 -1.6377010340239E+01
    22  1.0500000000000E-01 -1.6179271048717E+01
    23  1.1000000000000E-01 -1.5976615576954E+01
    24  1.1500000000000E-01 -1.5769497867645E+01
    25  1.2000000000000E-01 -1.5558351802526E+01
    26  1.2500000000000E-01 -1.5343588587291E+01
    27  1.3000000000000E-01 -1.5125594562124E+01
    28  1.3500000000000E-01 -1.4904729470546E+01
    29  1.4000000000000E-01 -1.4681325213107E+01
    30  1.4500000000000E-01 -1.4455685105674E+01
    31  1.5000000000000E-01 -1.4228083654771E+01
    32  1.5500000000000E-01 -1.3998766854653E+01
    33  1.6000000000000E-01 -1.3767953002774E+01
    34  1.6500000000000E-01 -1.3535834021958E+01
    35  1.7000000000000E-01 -1.3302577269281E+01
    36  1.7500000000000E-01 -1.3068327803303E+01
    37  1.8000000000000E-01 -1.2833211073181E+01
    38  1.8500000000000E-01 -1.2597335985386E+01
    39  1.9000000000000E-01 -1.2360798296416E+01
    40  1.9500000000000E-01 -1.2123684273139E+01
    41  2.0000000000000E-01 -1.1886074556451E+01
    42  2.0500000000000E-01 -1.1648048158737E+01
    43  2.1000000000000E-01 -1.1409686521523E+01
    44  2.1500000000000E-01 -1.1171077556574E+01
    45  2.2000000000000E-01 -1.0932319591828E+01
    46  2.2500000000000E-01 -1.0693525142857E+01
    47  2.3000000000000E-01 -1.0454824431227E+01
    48  2.3500000000000E-01 -1.0216368573111E+01
    49  2.4000000000000E-01 -9.9783323648906E+00
    50  2.4500000000000E-01 -9.7409165972563E+00
    51  2.5000000000000E-01 -9.5043498354353E+00
    52  2.5500000000000E-01 -9.2688896106312E+00
    53  2.6000000000000E-01 -9.0348229764841E+00
    54  2.6500000000000E-01 -8.8024663942515E+00
    55  2.7000000000000E-01 -8.5721649213628E+00
    56  2.7500000000000E-01 -8.3442906898755E+00
    57  2.8000000000000E-01 -8.1192406739858E+00
    58  2.8500000000000E-01 -7.8974337589287E+00
    59  2.9000000000000E-01 -7.6793071371241E+00
    60  2.9500000000000E-01 -7.4653120710462E+00
    61  3.0000000000000E-01 -7.2559090757492E+00
    62  3.0500000000000E-01 -7.0515625869999E+00
    63  3.1000000000000E-01 -6.8527351932587E+00
    64  3.1500000000000E-01 -6.6598815210292E+00
    65  3.2000000000000E-01 -6.4734418730690E+00
    66  3.2500000000000E-01 -6.2938357273573E+00
    67  3.3000000000000E-01 -6.1214552112840E+00
    68  3.3500000000000E-01 -5.9566586700437E+00
    69  3.4000000000000E-01 -5.7997644504986E+00
    70  3.4500000000000E-01 -5.6510450216749E+00
    71  3.5000000000000E-01 -5.5107215504958E+00
    72  3.5500000000000E-01 -5.3789590462991E+00
    73  3.6000000000000E-01 -5.2558621801826E+00
    74  3.6500000000000E-01 -5.1414718753579E+00
    75  3.7000000000000E-01 -5.0357627526434E+00
    76  3.7500000000000E-01 -4.9386415012207E+00
    77  3.8000000000000E-01 -4.8499462290870E+00
    78  3.8500000000000E-01 -4.7694468305983E+00
    79  3.9000000000000E-01 -4.6968463904835E+00
    80  3.9500000000000E-01 -4.6317836251036E+00
    81  4.0000000000000E-01 -4.5738363429547E+00
    82  4.0500000000000E-01 -4.5225258878730E+00
    83  4.1000000000000E-01 -4.4773225104952E+00
    84  4.1500000000000E-01 -4.4376515966450E+00
    85  4.2000000000000E-01 -4.4029006657823E+00
    86  4.2500000000000E-01 -4.3724270387912E+00
    87  4.3000000000000E-01 -4.3455660624240E+00
    88  4.3500000000000E-01 -4.3216397678753E+00
    89  4.4000000000000E-01 -4.2999658333654E+00
    90  4.4500000000000E-01 -4.2798667153529E+00
    91  4.5000000000000E-01 -4.2606788100960E+00
    92  4.5500000000000E-01 -4.2417615067340E+00
    93  4.6000000000000E-01 -4.2225059947807E+00
    94  4.6500000000000E-01 -4.2023436928231E+00
    95  4.7000000000000E-01 -4.1807541711600E+00
    96  4.7500000000000E-01 -4.1572724489375E+00
    97  4.8000000000000E-01 -4.1314955558723E+00
    98  4.8500000000000E-01 -4.1030882597108E+00
    99  4.9000000000000E-01 -4.0717878729628E+00
   100  4.9500000000000E-01 -4.0374079035797E+00
   101  5.0000000000000E-01 -3.9997987287031E+00
   102  5.0500000000000E-01 -3.9604082501711E+00
   103  5.1000000000000E-01 -3.9215819896063E+00
   104  5.1500000000000E-01 -3.8835083974053E+00
   105  5.2000000000000E-01 -3.8461669905672E+00
   106  5.2500000000000E-01 -3.8095368481717E+00
   107  5.3000000000000E-01 -3.7735978400865E+00
   108  5.3500000000000E-01 -3.7383305887080E+00
   109  5.4000000000000E-01 -3.7037164341220E+00
   110  5.4500000000000E-01 -3.6697374011825E+00
   111  5.5000000000000E-01 -3.6363761683855E+00
   112  5.5500000000000E-01 -3.6036160384259E+00
   113  5.6000000000000E-01 -3.5714409103312E+00
   114  5.6500000000000E-01 -3.5398352530755E+00
   115  5.7000000000000E-01 -3.5087840805815E+00
   116  5.7500000000000E-01 -3.4782729280272E+00
   117  5.8000000000000E-01 -3.4482878293781E+00
   118  5.8500000000000E-01 -3.4188152960710E+00
   119  5.9000000000000E-01 -3.3898422967830E+00
   120  5.9500000000000E-01 -3.3613562382189E+00
   121  6.0000000000000E-01 -3.3333449468604E+00
   122  6.0500000000000E-01 -3.3057966516201E+00
   123  6.1000000000000E-01 -3.2786999673480E+00
   124  6.1500000000000E-01 -3.2520438791434E+00
   125  6.2000000000000E-01 -3.2258177274251E+00
   126  6.2500000000000E-01 -3.2000111937189E+00
   127  6.3000000000000E-01 -3.1746142871215E+00
   128  6.3500000000000E-01 -3.1496173314039E+00
   129  6.4000000000000E-01 -3.1250109527197E+00
   130  6.4500000000000E-01 -3.1007860678845E+00
   131  6.5000000000000E-01 -3.0769338731967E+00
   132  6.5500000000000E-01 -3.0534458337705E+00
   133  6.6000000000000E-01 -3.0303136733529E+00
   134  6.6500000000000E-01 -3.0075293646012E+00
   135  6.7000000000000E-01 -2.9850851197949E+00
   136  6.7500000000000E-01 -2.9629733819612E+00
   137  6.8000000000000E-01 -2.9411868163911E+00
   138  6.8500000000000E-01 -2.9197183025280E+00
   139  6.9000000000000E-01 -2.8985609262084E+00
   140  6.9500000000000E-01 -2.8777079722377E+00
   141  7.0000000000000E-01 -2.8571529172840E+00
   142  7.0500000000000E-01 -2.8368894230749E+00
   143  7.1000000000000E-01 -2.8169113298807E+00
   144  7.1500000000000E-01 -2.7972126502474E+00
   145  7.2000000000000E-01 -2.7777875633630E+00
   146  7.2500000000000E-01 -2.7586304070508E+00
   147  7.3000000000000E-01 -2.7397356896658E+00
   148  7.3500000000000E-01 -2.7210980322957E+00
   149  7.4000000000000E-01 -2.7027122342807E+00
   150  7.4500000000000E-01 -2.6845732251337E+00
   151  7.5000000000000E-01 -2.6666760691981E+00
   152  7.5500000000000E-01 -2.6490159614297E+00
   153  7.6000000000000E-01 -2.6315882232515E+00
   154  7.6500000000000E-01 -2.6143882984020E+00
   155  7.7000000000000E-01 -2.5974117489645E+00
   156  7.7500000000000E-01 -2.5806542515490E+00
   157  7.8000000000000E-01 -2.5641115936218E+00
   158  7.8500000000000E-01 -2.5477796699749E+00
   159  7.9000000000000E-01 -2.5316544793297E+00
   160  7.9500000000000E-01 -2.5157321210686E+00
   161  8.0000000000000E-01 -2.5000087920895E+00
   162  8.0500000000000E-01 -2.4844807837774E+00
   163  8.1000000000000E-01 -2.4691444790879E+00
   164  8.1500000000000E-01 -2.4539963497387E+00
   165  8.2000000000000E-01 -2.4390329535029E+00
   166  8.2500000000000E-01 -2.4242509316016E+00
   167  8.3000000000000E-01 -2.4096470061904E+00
   168  8.3500000000000E-01 -2.3952179779361E+00
   169  8.4000000000000E-01 -2.3809607236801E+00
   170  8.4500000000000E-01 -2.3668721941845E+00
   171  8.5000000000000E-01 -2.3529494119586E+00
   172  8.5500000000000E-01 -2.3391894691602E+00
   173  8.6000000000000E-01 -2.3255895255715E+00
   174  8.6500000000000E-01 -2.3121468066443E+00
   175  8.7000000000000E-01 -2.2988586016133E+00
   176  8.7500000000000E-01 -2.2857222616734E+00
   177  8.8000000000000E-01 -2.2727351982197E+00
   178  8.8500000000000E-01 -2.2598948811466E+00
   179  8.9000000000000E-01 -2.2471988372049E+00
   180  8.9500000000000E-01 -2.2346446484136E+00
   181  9.0000000000000E-01 -2.2222299505244E+00
   182  9.0500000000000E-01 -2.2099524315378E+00
   183  9.1000000000000E-01 -2.1978098302671E+00
   184  9.1500000000000E-01 -2.1857999349507E+00
   185  9.2000000000000E-01 -2.1739205819086E+00
   186  9.2500000000000E-01 -2.1621696542430E+00
   187  9.3000000000000E-01 -2.1505450805809E+00
   188  9.3500000000000E-01 -2.1390448338565E+00
   189  9.4000000000000E-01 -2.1276669301332E+00
   190  9.4500000000000E-01 -2.1164094274623E+00
   191  9.5000000000000E-01 -2.1052704247783E+00
   192  9.5500000000000E-01 -2.0942480608284E+00
   193  9.6000000000000E-01 -2.0833405131360E+00
   194  9.6500000000000E-01 -2.0725459969960E+00
   195  9.7000000000000E-01 -2.0618627645011E+00
   196  9.7500000000000E-01 -2.0512891035987E+00
   197  9.8000000000000E-01 -2.0408233371759E+00
   198  9.8500000000000E-01 -2.0304638221727E+00
   199  9.9000000000000E-01 -2.0202089487224E+00
   200  9.9500000000000E-01 -2.0100571393173E+00
   201  1.0000000000000E+00 -2.0000068479997E+00
   202  1.0050000000000E+00 -1.9900565595773E+00
   203  1.0100000000000E+00 -1.9802047888616E+00
   204  1.0150000000000E+00 -1.9704500799286E+00
   205  1.0200000000000E+00 -1.9607910054022E+00
   206  1.0250000000000E+00 -1.9512261657571E+00
   207  1.0300000000000E+00 -1.9417541886433E+00
   208  1.0350000000000E+00 -1.9323737282299E+00
   209  1.0400000000000E+00 -1.9230834645668E+00
   210  1.0450000000000E+00 -1.9138821029665E+00
   211  1.0500000000000E+00 -1.9047683734020E+00
   212  1.0550000000000E+00 -1.8957410299225E+00
   213  1.0600000000000E+00 -1.8867988500857E+00
   214  1.0650000000000E+00 -1.8779406344062E+00
   215  1.0700000000000E+00 -1.8691652058184E+00
   216  1.0750000000000E+00 -1.8604714091558E+00
   217  1.0800000000000E+00 -1.8518581106439E+00
   218  1.0850000000000E+00 -1.8433241974070E+00
   219  1.0900000000000E+00 -1.8348685769893E+00
   220  1.0950000000000E+00 -1.8264901768883E+00
   221  1.1000000000000E+00 -1.8181879441017E+00
   222  1.1050000000000E+00 -1.8099608446858E+00
   223  1.1100000000000E+00 -1.8018078633267E+00
   224  1.1150000000000E+00 -1.7937280029222E+00
   225  1.1200000000000E+00 -1.7857202841756E+00
   226  1.1250000000000E+00 -1.7777837451997E+00
   227  1.1300000000000E+00 -1.7699174411319E+00
   228  1.1350000000000E+00 -1.7621204437593E+00
   229  1.1400000000000E+00 -1.7543918411530E+00
   230  1.1450000000000E+00 -1.7467307373133E+00
   231  1.1500000000000E+00 -1.7391362518230E+00
   232  1.1550000000000E+00 -1.7316075195099E+00
   233  1.1600000000000E+00 -1.7241436901189E+00
   234  1.1650000000000E+00 -1.7167439279915E+00
   235  1.1700000000000E+00 -1.7094074117537E+00
   236  1.1750000000000E+00 -1.7021333340105E+00
   237  1.1800000000000E+00 -1.6949209010540E+00
   238  1.1850000000000E+00 -1.6877693325732E+00
   239  1.1900000000000E+00 -1.6806778613694E+00
   240  1.1950000000000E+00 -1.6736457330846E+00
   241  1.2000000000000E+00 -1.6666722059334E+00
   242  1.2050000000000E+00 -1.6597565504420E+00
   243  1.2100000000000E+00 -1.6528980491942E+00
   244  1.2150000000000E+00 -1.6460959965828E+00
   245  1.2200000000000E+00 -1.6393496985682E+00
   246  1.2250000000000E+00 -1.6326584724418E+00
   247  1.2300000000000E+00 -1.6260216465960E+00
   248  1.2350000000000E+00 -1.6194385602995E+00
   249  1.2400000000000E+00 -1.6129085634778E+00
   250  1.2450000000000E+00 -1.6064310164993E+00
   251  1.2500000000000E+00 -1.6000052899667E+00
   252  1.2550000000000E+00 -1.5936307645126E+00
   253  1.2600000000000E+00 -1.5873068306011E+00
   254  1.2650000000000E+00 -1.5810328883330E+00
   255  1.2700000000000E+00 -1.5748083472563E+00
   256  1.2750000000000E+00 -1.5686326261812E+00
   257  1.2800000000000E+00 -1.5625051529986E+00
   258  1.2850000000000E+00 -1.5564253645042E+00
   259  1.2900000000000E+00 -1.5503927062251E+00
   260  1.2950000000000E+00 -1.5444066322521E+00
   261  1.3000000000000E+00 -1.5384666050741E+00
   262  1.3050000000000E+00 -1.5325720954182E+00
   263  1.3100000000000E+00 -1.5267225820916E+00
   264  1.3150000000000E+00 -1.5209175518285E+00
   265  1.3200000000000E+00 -1.5151564991399E+00
   266  1.3250000000000E+00 -1.5094389261666E+00
   267  1.3300000000000E+00 -1.5037643425362E+00
   268  1.3350000000000E+00 -1.4981322652226E+00
   269  1.3400000000000E+00 -1.4925422184090E+00
   270  1.3450000000000E+00 -1.4869937333538E+00
   271  1.3500000000000E+00 -1.4814863482601E+00
   272  1.3550000000000E+00 -1.4760196081467E+00
   273  1.3600000000000E+00 -1.4705930647235E+00
   274  1.3650000000000E+00 -1.4652062762689E+00
   275  1.3700000000000E+00 -1.4598588075093E+00
   276  1.3750000000000E+00 -1.4545502295029E+00
   277  1.3800000000000E+00 -1.4492801195240E+00
   278  1.3850000000000E+00 -1.4440480609515E+00
   279  1.3900000000000E+00 -1.4388536431586E+00
   280  1.3950000000000E+00 -1.4336964614057E+00
   281  1.4000000000000E+00 -1.4285761167354E+00
   282  1.4050000000000E+00 -1.4234922158689E+00
   283  1.4100000000000E+00 -1.4184443711063E+00
   284  1.4150000000000E+00 -1.4134322002273E+00
   285  1.4200000000000E+00 -1.4084553263950E+00
   286  1.4250000000000E+00 -1.4035133780614E+00
   287  1.4300000000000E+00 -1.3986059888750E+00
   288  1.4350000000000E+00 -1.3937327975902E+00
   289  1.4400000000000E+00 -1.3888934479788E+00
   290  1.4450000000000E+00 -1.3840875887430E+00
   291  1.4500000000000E+00 -1.3793148734303E+00
   292  1.4550000000000E+00 -1.3745749603507E+00
   293  1.4600000000000E+00 -1.3698675124948E+00
   294  1.4650000000000E+00 -1.3651921974539E+00
   295  1.4700000000000E+00 -1.3605486873420E+00
   296  1.4750000000000E+00 -1.3559366587187E+00
   297  1.4800000000000E+00 -1.3513557925148E+00
   298  1.4850000000000E+00 -1.3468057739581E+00
   299  1.4900000000000E+00 -1.3422862925016E+00
   300  1.4950000000000E+00 -1.3377970417526E+00
   301  1.5000000000000E+00 -1.3333377194038E+00
   302  1.5050000000000E+00 -1.3289080271653E+00
   303  1.5100000000000E+00 -1.3245076706978E+00
   304  1.5150000000000E+00 -1.3201363595479E+00
   305  1.5200000000000E+00 -1.3157938070839E+00
   306  1.5250000000000E+00 -1.3114797304331E+00
   307  1.5300000000000E+00 -1.3071938504206E+00
   308  1.5350000000000E+00 -1.3029358915088E+00
   309  1.5400000000000E+00 -1.2987055817387E+00
   310  1.5450000000000E+00 -1.2945026526715E+00
   311  1.5500000000000E+00 -1.2903268393325E+00
   312  1.5550000000000E+00 -1.2861778801547E+00
   313  1.5600000000000E+00 -1.2820555169246E+00
   314  1.5650000000000E+00 -1.2779594947288E+00
   315  1.5700000000000E+00 -1.2738895619008E+00
   316  1.5750000000000E+00 -1.2698454699701E+00
   317  1.5800000000000E+00 -1.2658269736114E+00
   318  1.5850000000000E+00 -1.2618338305948E+00
   319  1.5900000000000E+00 -1.2578658017376E+00
   320  1.5950000000000E+00 -1.2539226508559E+00
   321  1.6000000000000E+00 -1.2500041447183E+00
   322  1.6050000000000E+00 -1.2461100529998E+00
   323  1.6100000000000E+00 -1.2422401482364E+00
   324  1.6150000000000E+00 -1.2383942057810E+00
   325  1.6200000000000E+00 -1.2345720037600E+00
   326  1.6250000000000E+00 -1.2307733230304E+00
   327  1.6300000000000E+00 -1.2269979471383E+00
   328  1.6350000000000E+00 -1.2232456622774E+00
   329  1.6400000000000E+00 -1.2195162572488E+00
   330  1.6450000000000E+00 -1.2158095234213E+00
   331  1.6500000000000E+00 -1.2121252546928E+00
   332  1.6550000000000E+00 -1.2084632474515E+00
   333  1.6600000000000E+00 -1.2048233005391E+00
   334  1.6650000000000E+00 -1.2012052152133E+00
   335  1.6700000000000E+00 -1.1976087951122E+00
   336  1.6750000000000E+00 -1.1940338462184E+00
   337  1.6800000000000E+00 -1.1904801768243E+00
   338  1.6850000000000E+00 -1.1869475974976E+00
   339  1.6900000000000E+00 -1.1834359210479E+00
   340  1.6950000000000E+00 -1.1799449624936E+00
   341  1.7000000000000E+00 -1.1764745390293E+00
   342  1.7050000000000E+00 -1.1730244699939E+00
   343  1.7100000000000E+00 -1.1695945768393E+00
   344  1.7150000000000E+00 -1.1661846830996E+00
   345  1.7200000000000E+00 -1.1627946143609E+00
   346  1.7250000000000E+00 -1.1594241982314E+00
   347  1.7300000000000E+00 -1.1560732643123E+00
   348  1.7350000000000E+00 -1.1527416441691E+00
   349  1.7400000000000E+00 -1.1494291713031E+00
   350  1.7450000000000E+00 -1.1461356811243E+00
   351  1.7500000000000E+00 -1.1428610109234E+00
   352  1.7550000000000E+00 -1.1396049998454E+00
   353  1.7600000000000E+00 -1.1363674888632E+00
   354  1.7650000000000E+00 -1.1331483207518E+00
   355  1.7700000000000E+00 -1.1299473400627E+00
   356  1.7750000000000E+00 -1.1267643930988E+00
   357  1.7800000000000E+00 -1.1235993278902E+00
   358  1.7850000000000E+00 -1.1204519941696E+00
   359  1.7900000000000E+00 -1.1173222433485E+00
   360  1.7950000000000E+00 -1.1142099284943E+00
   361  1.8000000000000E+00 -1.1111149043067E+00
   362  1.8050000000000E+00 -1.1080370270956E+00
   363  1.8100000000000E+00 -1.1049761547585E+00
   364  1.8150000000000E+00 -1.1019321467588E+00
   365  1.8200000000000E+00 -1.0989048641042E+00
   366  1.8250000000000E+00 -1.0958941693258E+00
   367  1.8300000000000E+00 -1.0928999264569E+00
   368  1.8350000000000E+00 -1.0899220010128E+00
   369  1.8400000000000E+00 -1.0869602599705E+00
   370  1.8450000000000E+00 -1.0840145717491E+00
   371  1.8500000000000E+00 -1.0810848061902E+00
   372  1.8550000000000E+00 -1.0781708345387E+00
   373  1.8600000000000E+00 -1.0752725294238E+00
   374  1.8650000000000E+00 -1.0723897648409E+00
   375  1.8700000000000E+00 -1.0695224161328E+00
   376  1.8750000000000E+00 -1.0666703599722E+00
   377  1.8800000000000E+00 -1.0638334743435E+00
   378  1.8850000000000E+00 -1.0610116385260E+00
   379  1.8900000000000E+00 -1.0582047330763E+00
   380  1.8950000000000E+00 -1.0554126398116E+00
   381  1.9000000000000E+00 -1.0526352417932E+00
   382  1.9050000000000E+00 -1.0498724233101E+00
   383  1.9100000000000E+00 -1.0471240698630E+00
   384  1.9150000000000E+00 -1.0443900681481E+00
   385  1.9200000000000E+00 -1.0416703060424E+00
   386  1.9250000000000E+00 -1.0389646725872E+00
   387  1.9300000000000E+00 -1.0362730579741E+00
   388  1.9350000000000E+00 -1.0335953535295E+00
   389  1.9400000000000E+00 -1.0309314517001E+00
   390  1.9450000000000E+00 -1.0282812460387E+00
   391  1.9500000000000E+00 -1.0256446311896E+00
   392  1.9550000000000E+00 -1.0230215028752E+00
   393  1.9600000000000E+00 -1.0204117578818E+00
   394  1.9650000000000E+00 -1.0178152940462E+00
   395  1.9700000000000E+00 -1.0152320102425E+00
   396  1.9750000000000E+00 -1.0126618063689E+00
   397  1.9800000000000E+00 -1.0101045833345E+00
   398  1.9850000000000E+00 -1.0075602430470E+00
   399  1.9900000000000E+00 -1.0050286883999E+00
   400  1.9950000000000E+00 -1.0025098232602E+00
   401  2.0000000000000E+00 -1.0000035524562E+00
   402  2.0050000000000E+00 -9.9750978176552E-01
   403  2.0100000000000E+00 -9.9502841790347E-01
   404  2.0150000000000E+00 -9.9255936851112E-01
   405  2.0200000000000E+00 -9.9010254214402E-01
   406  2.0250000000000E+00 -9.8765784826091E-01
   407  2.0300000000000E+00 -9.8522519721251E-01
   408  2.0350000000000E+00 -9.8280450023067E-01
   409  2.0400000000000E+00 -9.8039566941749E-01
   410  2.0450000000000E+00 -9.7799861773471E-01
   411  2.0500000000000E+00 -9.7561325899322E-01
   412  2.0550000000000E+00 -9.7323950784276E-01
   413  2.0600000000000E+00 -9.7087727976169E-01
   414  2.0650000000000E+00 -9.6852649104699E-01
   415  2.0700000000000E+00 -9.6618705880438E-01
   416  2.0750000000000E+00 -9.6385890093854E-01
   417  2.0800000000000E+00 -9.6154193614356E-01
   418  2.0850000000000E+00 -9.5923608389341E-01
   419  2.0900000000000E+00 -9.5694126443267E-01
   420  2.0950000000000E+00 -9.5465739876730E-01
   421  2.1000000000000E+00 -9.5238440865560E-01
   422  2.1050000000000E+00 -9.5012221659924E-01
   423  2.1100000000000E+00 -9.4787074583449E-01
   424  2.1150000000000E+00 -9.4562992032351E-01
   425  2.1200000000000E+00 -9.4339966474581E-01
   426  2.1250000000000E+00 -9.4117990448979E-01
   427  2.1300000000000E+00 -9.3897056564444E-01
   428  2.1350000000000E+00 -9.3677157499112E-01
   429  2.1400000000000E+00 -9.3458285999548E-01
   430  2.1450000000000E+00 -9.3240434879948E-01
   431  2.1500000000000E+00 -9.3023597021355E-01
   432  2.1550000000000E+00 -9.2807765370878E-01
   433  2.1600000000000E+00 -9.2592932940933E-01
   434  2.1650000000000E+00 -9.2379092808486E-01
   435  2.1700000000000E+00 -9.2166238114310E-01
   436  2.1750000000000E+00 -9.1954362062252E-01
   437  2.1800000000000E+00 -9.1743457918509E-01
   438  2.1850000000000E+00 -9.1533519010913E-01
   439  2.1900000000000E+00 -9.1324538728234E-01
   440  2.1950000000000E+00 -9.1116510519475E-01
   441  2.2000000000000E+00 -9.0909427893199E-01
   442  2.2050000000000E+00 -9.0703284416845E-01
   443  2.2100000000000E+00 -9.0498073716068E-01
   444  2.2150000000000E+00 -9.0293789474077E-01
   445  2.2200000000000E+00 -9.0090425430992E-01
   446  2.2250000000000E+00 -8.9887975383198E-01
   447  2.2300000000000E+00 -8.9686433182721E-01
   448  2.2350000000000E+00 -8.9485792736602E-01
   449  2.2400000000000E+00 -8.9286048006284E-01
   450  2.2450000000000E+00 -8.9087193007004E-01
   451  2.2500000000000E+00 -8.8889221807199E-01
   452  2.2550000000000E+00 -8.8692128527914E-01
   453  2.2600000000000E+00 -8.8495907342219E-01
   454  2.2650000000000E+00 -8.8300552474638E-01
   455  2.2700000000000E+00 -8.8106058200578E-01
   456  2.2750000000000E+00 -8.7912418845776E-01
   457  2.2800000000000E+00 -8.7719628785740E-01
   458  2.2850000000000E+00 -8.7527682445210E-01
   459  2.2900000000000E+00 -8.7336574297617E-01
   460  2.2950000000000E+00 -8.7146298864554E-01
   461  2.3000000000000E+00 -8.6956850715254E-01
   462  2.3050000000000E+00 -8.6768224466071E-01
   463  2.3100000000000E+00 -8.6580414779970E-01
   464  2.3150000000000E+00 -8.6393416366027E-01
   465  2.3200000000000E+00 -8.6207223978926E-01
   466  2.3250000000000E+00 -8.6021832418475E-01
   467  2.3300000000000E+00 -8.5837236529118E-01
   468  2.3350000000000E+00 -8.5653431199458E-01
   469  2.3400000000000E+00 -8.5470411361786E-01
   470  2.3450000000000E+00 -8.5288171991614E-01
   471  2.3500000000000E+00 -8.5106708107217E-01
   472  2.3550000000000E+00 -8.4926014769175E-01
   473  2.3600000000000E+00 -8.4746087079930E-01
   474  2.3650000000000E+00 -8.4566920183342E-01
   475  2.3700000000000E+00 -8.4388509264249E-01
   476  2.3750000000000E+00 -8.4210849548038E-01
   477  2.3800000000000E+00 -8.4033936300222E-01
   478  2.3850000000000E+00 -8.3857764826012E-01
   479  2.3900000000000E+00 -8.3682330469910E-01
   480  2.3950000000000E+00 -8.3507628615292E-01
   481  2.4000000000000E+00 -8.3333654684008E-01
   482  2.4050000000000E+00 -8.3160404135980E-01
   483  2.4100000000000E+00 -8.2987872468806E-01
   484  2.4150000000000E+00 -8.2816055217373E-01
   485  2.4200000000000E+00 -8.2644947953467E-01
   486  2.4250000000000E+00 -8.2474546285398E-01
   487  2.4300000000000E+00 -8.2304845857621E-01
   488  2.4350000000000E+00 -8.2135842350367E-01
   489  2.4400000000000E+00 -8.1967531479272E-01
   490  2.4450000000000E+00 -8.1799908995021E-01
   491  2.4500000000000E+00 -8.1632970682986E-01
   492  2.4550000000000E+00 -8.1466712362875E-01
   493  2.4600000000000E+00 -8.1301129888382E-01
   494  2.4650000000000E+00 -8.1136219146842E-01
   495  2.4700000000000E+00 -8.0971976058891E-01
   496  2.4750000000000E+00 -8.0808396578132E-01
   497  2.4800000000000E+00 -8.0645476690798E-01
   498  2.4850000000000E+00 -8.0483212415427E-01
   499  2.4900000000000E+00 -8.0321599802536E-01
   500  2.4950000000000E+00 -8.0160634934303E-01
   501  2.5000000000000E+00 -8.0000313924247E-01
   502  2.5050000000000E+00 -7.9840632916918E-01
   503  2.5100000000000E+00 -7.9681588087586E-01
   504  2.5150000000000E+00 -7.9523175641937E-01
   505  2.5200000000000E+00 -7.9365391815772E-01
   506  2.5250000000000E+00 -7.9208232874705E-01
   507  2.5300000000000E+00 -7.9051695113873E-01
   508  2.5350000000000E+00 -7.8895774857643E-01
   509  2.5400000000000E+00 -7.8740468459322E-01
   510  2.5450000000000E+00 -7.8585772300877E-01
   511  2.5500000000000E+00 -7.8431682792652E-01
   512  2.5550000000000E+00 -7.8278196373087E-01
   513  2.5600000000000E+00 -7.8125309508451E-01
   514  2.5650000000000E+00 -7.7973018692565E-01
   515  2.5700000000000E+00 -7.7821320446534E-01
   516  2.5750000000000E+00 -7.7670211318485E-01
   517  2.5800000000000E+00 -7.7519687883305E-01
   518  2.5850000000000E+00 -7.7369746742380E-01
   519  2.5900000000000E+00 -7.7220384523340E-01
   520  2.5950000000000E+00 -7.7071597879806E-01
   521  2.6000000000000E+00 -7.6923383491142E-01
   522  2.6050000000000E+00 -7.6775738062204E-01
   523  2.6100000000000E+00 -7.6628658323102E-01
   524  2.6150000000000E+00 -7.6482141028952E-01
   525  2.6200000000000E+00 -7.6336182959641E-01
   526  2.6250000000000E+00 -7.6190780919589E-01
   527  2.6300000000000E+00 -7.6045931737521E-01
   528  2.6350000000000E+00 -7.5901632266228E-01
   529  2.6400000000000E+00 -7.5757879382346E-01
   530  2.6450000000000E+00 -7.5614669986129E-01
   531  2.6500000000000E+00 -7.5472001001223E-01
   532  2.6550000000000E+00 -7.5329869374449E-01
   533  2.6600000000000E+00 -7.5188272075587E-01
   534  2.6650000000000E+00 -7.5047206097154E-01
   535  2.6700000000000E+00 -7.4906668454197E-01
   536  2.6750000000000E+00 -7.4766656184081E-01
   537  2.6800000000000E+00 -7.4627166346280E-01
   538  2.6850000000000E+00 -7.4488196022170E-01
   539  2.6900000000000E+00 -7.4349742314830E-01
   540  2.6950000000000E+00 -7.4211802348834E-01
   541  2.7000000000000E+00 -7.4074373270058E-01
   542  2.7050000000000E+00 -7.3937452245481E-01
   543  2.7100000000000E+00 -7.3801036462988E-01
   544  2.7150000000000E+00 -7.3665123131180E-01
   545  2.7200000000000E+00 -7.3529709479185E-01
   546  2.7250000000000E+00 -7.3394792756466E-01
   547  2.7300000000000E+00 -7.3260370232637E-01
   548  2.7350000000000E+00 -7.3126439197278E-01
   549  2.7400000000000E+00 -7.2992996959755E-01
   550  2.7450000000000E+00 -7.2860040849034E-01
   551  2.7500000000000E+00 -7.2727568213512E-01
   552  2.7550000000000E+00 -7.2595576420832E-01
   553  2.7600000000000E+00 -7.2464062857713E-01
   554  2.7650000000000E+00 -7.2333024929776E-01
   555  2.7700000000000E+00 -7.2202460061376E-01
   556  2.7750000000000E+00 -7.2072365695430E-01
   557  2.7800000000000E+00 -7.1942739293251E-01
   558  2.7850000000000E+00 -7.1813578334384E-01
   559  2.7900000000000E+00 -7.1684880316441E-01
   560  2.7950000000000E+00 -7.1556642754942E-01
   561  2.8000000000000E+00 -7.1428863183152E-01
   562  2.8050000000000E+00 -7.1301539151924E-01
   563  2.8100000000000E+00 -7.1174668229544E-01
   564  2.8150000000000E+00 -7.1048248001573E-01
   565  2.8200000000000E+00 -7.0922276070698E-01
   566  2.8250000000000E+00 -7.0796750056578E-01
   567  2.8300000000000E+00 -7.0671667595691E-01
   568  2.8350000000000E+00 -7.0547026341194E-01
   569  2.8400000000000E+00 -7.0422823962767E-01
   570  2.8450000000000E+00 -7.0299058146475E-01
   571  2.8500000000000E+00 -7.0175726594618E-01
   572  2.8550000000000E+00 -7.0052827025595E-01
   573  2.8600000000000E+00 -6.9930357173759E-01
   574  2.8650000000000E+00 -6.9808314789279E-01
   575  2.8700000000000E+00 -6.9686697638003E-01
   576  2.8750000000000E+00 -6.9565503501321E-01
   577  2.8800000000000E+00 -6.9444730176029E-01
   578  2.8850000000000E+00 -6.9324375474198E-01
   579  2.8900000000000E+00 -6.9204437223039E-01
   580  2.8950000000000E+00 -6.9084913264776E-01
   581  2.9000000000000E+00 -6.8965801456511E-01
   582  2.9050000000000E+00 -6.8847099670102E-01
   583  2.9100000000000E+00 -6.8728805792033E-01
   584  2.9150000000000E+00 -6.8610917723289E-01
   585  2.9200000000000E+00 -6.8493433379230E-01
   586  2.9250000000000E+00 -6.8376350689472E-01
   587  2.9300000000000E+00 -6.8259667597763E-01
   588  2.9350000000000E+00 -6.8143382061864E-01
   589  2.9400000000000E+00 -6.8027492053426E-01
   590  2.9450000000000E+00 -6.7911995557878E-01
   591  2.9500000000000E+00 -6.7796890574306E-01
   592  2.9550000000000E+00 -6.7682175115338E-01
   593  2.9600000000000E+00 -6.7567847207031E-01
   594  2.9650000000000E+00 -6.7453904888756E-01
   595  2.9700000000000E+00 -6.7340346213089E-01
   596  2.9750000000000E+00 -6.7227169245696E-01
   597  2.9800000000000E+00 -6.7114372065227E-01
   598  2.9850000000000E+00 -6.7001952763203E-01
   599  2.9900000000000E+00 -6.6889909443914E-01
   600  2.9950000000000E+00 -6.6778240224306E-01
   601  3.0000000000000E+00 -6.6666943233880E-01
   602  3.0050000000000E+00 -6.6556016614588E-01
   603  3.0100000000000E+00 -6.6445458520725E-01
   604  3.0150000000000E+00 -6.6335267118831E-01
   605  3.0200000000000E+00 -6.6225440587589E-01