Ba    ONCVPSP-4.0.1  r_core=   2.94370   2.92614   2.96136   2.53480
     56.0000     10.0000      200312    zatom,zion,pspd
     8      11   3     4   600     0    pspcod,pspxc,lmax,lloc,mmax,r2well
  5.99000000  0.00000000  0.00000000    rchrg fchrg qchrg
     2     2     2     2     0    nproj
     1     1           extension_switch
   0                         3.6733283888138E+00  4.6472270984874E-01
     1  0.0000000000000E+00 -1.8655632594289E-12  5.7645693773978E-12
     2  1.0000000000000E-02  3.0571420317533E-02 -1.0170507807474E-02
     3  2.0000000000000E-02  6.1121040208816E-02 -2.0317152089188E-02
     4  3.0000000000000E-02  9.1627088355799E-02 -3.0416134288633E-02
     5  4.0000000000000E-02  1.2206785155909E-01 -4.0443785496438E-02
     6  5.0000000000000E-02  1.5242170355346E-01 -5.0376630546965E-02
     7  6.0000000000000E-02  1.8266713353194E-01 -6.0191451246642E-02
     8  7.0000000000000E-02  2.1278277428384E-01 -6.9865348451410E-02
     9  8.0000000000000E-02  2.4274742985348E-01 -7.9375802716436E-02
    10  9.0000000000000E-02  2.7254010262892E-01 -8.8700733248449E-02
    11  1.0000000000000E-01  3.0214001977298E-01 -9.7818554899578E-02
    12  1.1000000000000E-01  3.3152665891150E-01 -1.0670823295142E-01
    13  1.2000000000000E-01  3.6067977299800E-01 -1.1534933544926E-01
    14  1.3000000000000E-01  3.8957941427740E-01 -1.2372208285851E-01
    15  1.4000000000000E-01  4.1820595727610E-01 -1.3180739482929E-01
    16  1.5000000000000E-01  4.4654012075045E-01 -1.3958693386922E-01
    17  1.6000000000000E-01  4.7456298853050E-01 -1.4704314574048E-01
    18  1.7000000000000E-01  5.0225602920153E-01 -1.5415929641347E-01
    19  1.8000000000000E-01  5.2960111457130E-01 -1.6091950542704E-01
    20  1.9000000000000E-01  5.5658053687699E-01 -1.6730877552315E-01
    21  2.0000000000000E-01  5.8317702469177E-01 -1.7331301844310E-01
    22  2.1000000000000E-01  6.0937375749742E-01 -1.7891907679151E-01
    23  2.2000000000000E-01  6.3515437889575E-01 -1.8411474189442E-01
    24  2.3000000000000E-01  6.6050300843818E-01 -1.8888876759828E-01
    25  2.4000000000000E-01  6.8540425205964E-01 -1.9323087997719E-01
    26  2.5000000000000E-01  7.0984321110959E-01 -1.9713178293641E-01
    27  2.6000000000000E-01  7.3380548997972E-01 -2.0058315972164E-01
    28  2.7000000000000E-01  7.5727720233487E-01 -2.0357767036378E-01
    29  2.8000000000000E-01  7.8024497596016E-01 -2.0610894511039E-01
    30  2.9000000000000E-01  8.0269595624433E-01 -2.0817157391525E-01
    31  3.0000000000000E-01  8.2461780832543E-01 -2.0976109207772E-01
    32  3.1000000000000E-01  8.4599871793188E-01 -2.1087396214361E-01
    33  3.2000000000000E-01  8.6682739095789E-01 -2.1150755219853E-01
    34  3.3000000000000E-01  8.8709305181817E-01 -2.1166011070315E-01
    35  3.4000000000000E-01  9.0678544063318E-01 -2.1133073803811E-01
    36  3.5000000000000E-01  9.2589480930100E-01 -2.1051935494318E-01
    37  3.6000000000000E-01  9.4441191651779E-01 -2.0922666805167E-01
    38  3.7000000000000E-01  9.6232802181336E-01 -2.0745413273603E-01
    39  3.8000000000000E-01  9.7963487867309E-01 -2.0520391349531E-01
    40  3.9000000000000E-01  9.9632472682151E-01 -2.0247884212745E-01
    41  4.0000000000000E-01  1.0123902837469E+00 -1.9928237394168E-01
    42  4.1000000000000E-01  1.0278247355496E+00 -1.9561854227663E-01
    43  4.2000000000000E-01  1.0426217271990E+00 -1.9149191159876E-01
    44  4.3000000000000E-01  1.0567753522882E+00 -1.8690752946377E-01
    45  4.4000000000000E-01  1.0702801423753E+00 -1.8187087762964E-01
    46  4.5000000000000E-01  1.0831310560044E+00 -1.7638782261495E-01
    47  4.6000000000000E-01  1.0953234674972E+00 -1.7046456599945E-01
    48  4.7000000000000E-01  1.1068531556094E+00 -1.6410759476532E-01
    49  4.8000000000000E-01  1.1177162921462E+00 -1.5732363197824E-01
    50  4.9000000000000E-01  1.1279094306268E+00 -1.5011958810542E-01
    51  5.0000000000000E-01  1.1374294950926E+00 -1.4250251326529E-01
    52  5.1000000000000E-01  1.1462737691478E+00 -1.3447955069868E-01
    53  5.2000000000000E-01  1.1544398853214E+00 -1.2605789174538E-01
    54  5.3000000000000E-01  1.1619258148355E+00 -1.1724473260230E-01
    55  5.4000000000000E-01  1.1687298578642E+00 -1.0804723313038E-01
    56  5.5000000000000E-01  1.1748506343607E+00 -9.8472477966582E-02
    57  5.6000000000000E-01  1.1802870755295E+00 -8.8527440185618E-02
    58  5.7000000000000E-01  1.1850384160138E+00 -7.8218947742231E-02
    59  5.8000000000000E-01  1.1891041868648E+00 -6.7553652910499E-02
    60  5.9000000000000E-01  1.1924842093540E+00 -5.6538004920298E-02
    61  6.0000000000000E-01  1.1951785896833E+00 -4.5178225974160E-02
    62  6.1000000000000E-01  1.1971877146431E+00 -3.3480290809367E-02
    63  6.2000000000000E-01  1.1985122482616E+00 -2.1449909950685E-02
    64  6.3000000000000E-01  1.1991531294807E+00 -9.0925167792512E-03
    65  6.4000000000000E-01  1.1991115708907E+00  3.5867414783005E-03
    66  6.5000000000000E-01  1.1983890585435E+00  1.6583008757997E-02
    67  6.6000000000000E-01  1.1969873528623E+00  2.9891721103912E-02
    68  6.7000000000000E-01  1.1949084906544E+00  4.3508603513733E-02
    69  6.8000000000000E-01  1.1921547882274E+00  5.7429662670986E-02
    70  6.9000000000000E-01  1.1887288456023E+00  7.1651175573523E-02
    71  7.0000000000000E-01  1.1846335518077E+00  8.6169674092482E-02
    72  7.1000000000000E-01  1.1798720912330E+00  1.0098192551909E-01
    73  7.2000000000000E-01  1.1744479510093E+00  1.1608490918103E-01
    74  7.3000000000000E-01  1.1683649293806E+00  1.3147578923336E-01
    75  7.4000000000000E-01  1.1616271450194E+00  1.4715188375261E-01
    76  7.5000000000000E-01  1.1542390472337E+00  1.6311063028529E-01
    77  7.6000000000000E-01  1.1462054270044E+00  1.7934954802469E-01
    78  7.7000000000000E-01  1.1375314287873E+00  1.9586619681126E-01
    79  7.8000000000000E-01  1.1282225630045E+00  2.1265813317293E-01
    80  7.9000000000000E-01  1.1182847191454E+00  2.2972286364166E-01
    81  8.0000000000000E-01  1.1077241793902E+00  2.4705779560149E-01
    82  8.1000000000000E-01  1.0965476326650E+00  2.6466018594126E-01
    83  8.2000000000000E-01  1.0847621890296E+00  2.8252708780174E-01
    84  8.3000000000000E-01  1.0723753942970E+00  3.0065529572235E-01
    85  8.4000000000000E-01  1.0593952447761E+00  3.1904128950648E-01
    86  8.5000000000000E-01  1.0458302020297E+00  3.3768117713690E-01
    87  8.6000000000000E-01  1.0316892075313E+00  3.5657063708357E-01
    88  8.7000000000000E-01  1.0169816971048E+00  3.7570486035536E-01
    89  8.8000000000000E-01  1.0017176150293E+00  3.9507849265482E-01
    90  8.9000000000000E-01  9.8590742768604E-01  4.1468557700065E-01
    91  9.0000000000000E-01  9.6956213662778E-01  4.3451949718669E-01
    92  9.1000000000000E-01  9.5269329094749E-01  4.5457292244804E-01
    93  9.2000000000000E-01  9.3531299882449E-01  4.7483775370555E-01
    94  9.3000000000000E-01  9.1743393812710E-01  4.9530507175752E-01
    95  9.4000000000000E-01  8.9906936595202E-01  5.1596508778462E-01
    96  9.5000000000000E-01  8.8023312698308E-01  5.3680709652769E-01
    97  9.6000000000000E-01  8.6093966055430E-01  5.5781943249123E-01
    98  9.7000000000000E-01  8.4120400630618E-01  5.7898942951561E-01
    99  9.8000000000000E-01  8.2104180832773E-01  6.0030338404990E-01
   100  9.9000000000000E-01  8.0046931768155E-01  6.2174652244408E-01
   101  1.0000000000000E+00  7.7950339321441E-01  6.4330297256475E-01
   102  1.0100000000000E+00  7.5816150056199E-01  6.6495574002110E-01
   103  1.0200000000000E+00  7.3646170926212E-01  6.8668668927059E-01
   104  1.0300000000000E+00  7.1442268789861E-01  7.0847652985281E-01
   105  1.0400000000000E+00  6.9206369720459E-01  7.3030480797947E-01
   106  1.0500000000000E+00  6.6940458106257E-01  7.5214990368447E-01
   107  1.0600000000000E+00  6.4646575534666E-01  7.7398903371512E-01
   108  1.0700000000000E+00  6.2326819456134E-01  7.9579826031858E-01
   109  1.0800000000000E+00  5.9983341624022E-01  8.1755250605205E-01
   110  1.0900000000000E+00  5.7618346307788E-01  8.3922557471717E-01
   111  1.1000000000000E+00  5.5234088277772E-01  8.6079017849060E-01
   112  1.1100000000000E+00  5.2832870560885E-01  8.8221797129323E-01
   113  1.1200000000000E+00  5.0417041967526E-01  9.0347958841107E-01
   114  1.1300000000000E+00  4.7988994391134E-01  9.2454469235000E-01
   115  1.1400000000000E+00  4.5551159882794E-01  9.4538202487596E-01
   116  1.1500000000000E+00  4.3106007504434E-01  9.6595946516128E-01
   117  1.1600000000000E+00  4.0656039965181E-01  9.8624409392683E-01
   118  1.1700000000000E+00  3.8203790046553E-01  1.0062022634388E+00
   119  1.1800000000000E+00  3.5751816823173E-01  1.0257996731881E+00
   120  1.1900000000000E+00  3.3302701686793E-01  1.0450014510508E+00
   121  1.2000000000000E+00  3.0859044182407E-01  1.0637722396975E+00
   122  1.2100000000000E+00  2.8423457666259E-01  1.0820762879907E+00
   123  1.2200000000000E+00  2.5998564796508E-01  1.0998775470828E+00
   124  1.2300000000000E+00  2.3586992868300E-01  1.1171397708971E+00
   125  1.2400000000000E+00  2.1191369005841E-01  1.1338266206518E+00
   126  1.2500000000000E+00  1.8814315225003E-01  1.1499017730591E+00
   127  1.2600000000000E+00  1.6458443380746E-01  1.1653290318113E+00
   128  1.2700000000000E+00  1.4126350014445E-01  1.1800724419416E+00
   129  1.2800000000000E+00  1.1820611116921E-01  1.1940964066281E+00
   130  1.2900000000000E+00  9.5437768236046E-02  1.2073658059929E+00
   131  1.3000000000000E+00  7.2983660588566E-02  1.2198461174287E+00
   132  1.3100000000000E+00  5.0868611470175E-02  1.2315035369736E+00
   133  1.3200000000000E+00  2.9117024081629E-02  1.2423051012416E+00
   134  1.3300000000000E+00  7.7528275695918E-03  1.2522188094050E+00
   135  1.3400000000000E+00 -1.3200576766996E-02  1.2612137447199E+00
   136  1.3500000000000E+00 -3.3720368863666E-02  1.2692601950763E+00
   137  1.3600000000000E+00 -5.3784362679659E-02  1.2763297720552E+00
   138  1.3700000000000E+00 -7.3371058198479E-02  1.2823955279711E+00
   139  1.3800000000000E+00 -9.2459692448631E-02  1.2874320703799E+00
   140  1.3900000000000E+00 -1.1103028935449E-01  1.2914156735401E+00
   141  1.4000000000000E+00 -1.2906370822897E-01  1.2943243863141E+00
   142  1.4100000000000E+00 -1.4654169072237E-01  1.2961381360130E+00
   143  1.4200000000000E+00 -1.6344690604523E-01  1.2968388276937E+00
   144  1.4300000000000E+00 -1.7976299428725E-01  1.2964104384333E+00
   145  1.4400000000000E+00 -1.9547460765955E-01  1.2948391061207E+00
   146  1.4500000000000E+00 -2.1056744949316E-01  1.2921132123234E+00
   147  1.4600000000000E+00 -2.2502831083372E-01  1.2882234588083E+00
   148  1.4700000000000E+00 -2.3884510447923E-01  1.2831629373164E+00
   149  1.4800000000000E+00 -2.5200689631619E-01  1.2769271922169E+00
   150  1.4900000000000E+00 -2.6450393381817E-01  1.2695142756921E+00
   151  1.5000000000000E+00 -2.7632767158024E-01  1.2609247951321E+00
   152  1.5100000000000E+00 -2.8747079377268E-01  1.2511619524497E+00
   153  1.5200000000000E+00 -2.9792723340841E-01  1.2402315750543E+00
   154  1.5300000000000E+00 -3.0769218832923E-01  1.2281421382608E+00
   155  1.5400000000000E+00 -3.1676213382799E-01  1.2149047789389E+00
   156  1.5500000000000E+00 -3.2513483183589E-01  1.2005333002478E+00
   157  1.5600000000000E+00 -3.3280933661628E-01  1.1850441673346E+00
   158  1.5700000000000E+00 -3.3978599691962E-01  1.1684564939123E+00
   159  1.5800000000000E+00 -3.4606645456683E-01  1.1507920196736E+00
   160  1.5900000000000E+00 -3.5165363944203E-01  1.1320750785304E+00
   161  1.6000000000000E+00 -3.5655176088882E-01  1.1123325577122E+00
   162  1.6100000000000E+00 -3.6076629551788E-01  1.0915938477917E+00
   163  1.6200000000000E+00 -3.6430397144744E-01  1.0698907837458E+00
   164  1.6300000000000E+00 -3.6717274901150E-01  1.0472575772002E+00
   165  1.6400000000000E+00 -3.6938179798430E-01  1.0237307400400E+00
   166  1.6500000000000E+00 -3.7094147138299E-01  9.9934899960931E-01
   167  1.6600000000000E+00 -3.7186327592340E-01  9.7415320575883E-01
   168  1.6700000000000E+00 -3.7215983921681E-01  9.4818623003373E-01
   169  1.6800000000000E+00 -3.7184487380822E-01  9.2149285733185E-01
   170  1.6900000000000E+00 -3.7093313816857E-01  8.9411967039284E-01
   171  1.7000000000000E+00 -3.6944039476559E-01  8.6611492751175E-01
   172  1.7100000000000E+00 -3.6738336534846E-01  8.3752843390020E-01
   173  1.7200000000000E+00 -3.6477968359294E-01  8.0841140714655E-01
   174  1.7300000000000E+00 -3.6164784526318E-01  7.7881633725293E-01
   175  1.7400000000000E+00 -3.5800715605617E-01  7.4879684175116E-01
   176  1.7500000000000E+00 -3.5387767730342E-01  7.1840751642156E-01
   177  1.7600000000000E+00 -3.4928016971258E-01  6.8770378215871E-01
   178  1.7700000000000E+00 -3.4423603533900E-01  6.5674172854533E-01
   179  1.7800000000000E+00 -3.3876725798361E-01  6.2557795471063E-01
   180  1.7900000000000E+00 -3.3289634221932E-01  5.9426940806133E-01
   181  1.8000000000000E+00 -3.2664625125267E-01  5.6287322148397E-01
   182  1.8100000000000E+00 -3.2004034383163E-01  5.3144654962323E-01
   183  1.8200000000000E+00 -3.1310231041329E-01  5.0004640484592E-01
   184  1.8300000000000E+00 -3.0585610880723E-01  4.6872949350149E-01
   185  1.8400000000000E+00 -2.9832589951166E-01  4.3755205308837E-01
   186  1.8500000000000E+00 -2.9053598095963E-01  4.0656969093177E-01
   187  1.8600000000000E+00 -2.8251072489156E-01  3.7583722497128E-01
   188  1.8700000000000E+00 -2.7427451206931E-01  3.4540852724720E-01
   189  1.8800000000000E+00 -2.6585166854380E-01  3.1533637066184E-01
   190  1.8900000000000E+00 -2.5726640268521E-01  2.8567227957751E-01
   191  1.9000000000000E+00 -2.4854274318001E-01  2.5646638479438E-01
   192  1.9100000000000E+00 -2.3970447819411E-01  2.2776728343224E-01
   193  1.9200000000000E+00 -2.3077509589516E-01  1.9962190421675E-01
   194  1.9300000000000E+00 -2.2177772652015E-01  1.7207537864612E-01
   195  1.9400000000000E+00 -2.1273508616657E-01  1.4517091848698E-01
   196  1.9500000000000E+00 -2.0366942247730E-01  1.1894970001880E-01
   197  1.9600000000000E+00 -1.9460246237962E-01  9.3450755415022E-02
   198  1.9700000000000E+00 -1.8555536202952E-01  6.8710871616126E-02
   199  1.9800000000000E+00 -1.7654865910127E-01  4.4764497014397E-02
   200  1.9900000000000E+00 -1.6760222755198E-01  2.1643656235669E-02
   201  2.0000000000000E+00 -1.5873523497853E-01 -6.2212673646451E-04
   202  2.0100000000000E+00 -1.4996610267258E-01 -2.2005896885608E-02
   203  2.0200000000000E+00 -1.4131246846686E-01 -4.2483327768576E-02
   204  2.0300000000000E+00 -1.3279115245309E-01 -6.2032772274519E-02
   205  2.0400000000000E+00 -1.2441812563857E-01 -8.0635304451140E-02
   206  2.0500000000000E+00 -1.1620848159576E-01 -9.8274752351347E-02
   207  2.0600000000000E+00 -1.0817641114488E-01 -1.1493772189746E-01
   208  2.0700000000000E+00 -1.0033518009653E-01 -1.3061361180061E-01
   209  2.0800000000000E+00 -9.2697110067356E-02 -1.4529461961426E-01
   210  2.0900000000000E+00 -8.5273562368377E-02 -1.5897573904214E-01
   211  2.1000000000000E+00 -7.8074924951915E-02 -1.7165474866105E-01
   212  2.1100000000000E+00 -7.1110602390236E-02 -1.8333219225708E-01
   213  2.1200000000000E+00 -6.4389008844866E-02 -1.9401135101522E-01
   214  2.1300000000000E+00 -5.7917563973634E-02 -2.0369820783704E-01
   215  2.1400000000000E+00 -5.1702691709346E-02 -2.1240140409840E-01
   216  2.1500000000000E+00 -4.5749821832306E-02 -2.2013218919291E-01
   217  2.1600000000000E+00 -4.0063394247346E-02 -2.2690436323867E-01
   218  2.1700000000000E+00 -3.4646865864033E-02 -2.3273421335935E-01
   219  2.1800000000000E+00 -2.9502719969130E-02 -2.3764044397636E-01
   220  2.1900000000000E+00 -2.4632477969451E-02 -2.4164410157830E-01
   221  2.2000000000000E+00 -2.0036713375408E-02 -2.4476849445399E-01
   222  2.2100000000000E+00 -1.5715067885036E-02 -2.4703910790253E-01
   223  2.2200000000000E+00 -1.1666269421741E-02 -2.4848351544947E-01
   224  2.2300000000000E+00 -7.8881519711394E-03 -2.4913128661675E-01
   225  2.2400000000000E+00 -4.3776770569179E-03 -2.4901389180632E-01
   226  2.2500000000000E+00 -1.1309566891093E-03 -2.4816460487106E-01
   227  2.2600000000000E+00  1.8567223859339E-03 -2.4661840395375E-01
   228  2.2700000000000E+00  4.5908734300917E-03 -2.4441187164818E-01
   229  2.2800000000000E+00  7.0777833844887E-03 -2.4158309409685E-01
   230  2.2900000000000E+00  9.3244837433116E-03 -2.3817155251592E-01
   231  2.3000000000000E+00  1.1338726205697E-02 -2.3421803551875E-01
   232  2.3100000000000E+00  1.3128960642932E-02 -2.2976456381118E-01
   233  2.3200000000000E+00  1.4704170977602E-02 -2.2485377051217E-01
   234  2.3300000000000E+00  1.6073694342940E-02 -2.1952823327408E-01
   235  2.3400000000000E+00  1.7247078794121E-02 -2.1382996702230E-01
   236  2.3500000000000E+00  1.8234061046675E-02 -2.0780038488154E-01
   237  2.3600000000000E+00  1.9044516987203E-02 -2.0148015481070E-01
   238  2.3700000000000E+00  1.9688418769423E-02 -1.9490908330489E-01
   239  2.3800000000000E+00  2.0175792033819E-02 -1.8812600090356E-01
   240  2.3900000000000E+00  2.0516674329608E-02 -1.8116865356978E-01
   241  2.4000000000000E+00  2.0721075470578E-02 -1.7407360246050E-01
   242  2.4100000000000E+00  2.0798939471788E-02 -1.6687613063928E-01
   243  2.4200000000000E+00  2.0760107104816E-02 -1.5961015298440E-01
   244  2.4300000000000E+00  2.0614281030197E-02 -1.5230813648890E-01
   245  2.4400000000000E+00  2.0370992756091E-02 -1.4500102800223E-01
   246  2.4500000000000E+00  2.0039571238178E-02 -1.3771818858555E-01
   247  2.4600000000000E+00  1.9629113670988E-02 -1.3048733640758E-01
   248  2.4700000000000E+00  1.9148458369339E-02 -1.2333449767264E-01
   249  2.4800000000000E+00  1.8606159816423E-02 -1.1628396574237E-01
   250  2.4900000000000E+00  1.8010465939726E-02 -1.0935826855630E-01
   251  2.5000000000000E+00  1.7369297651811E-02 -1.0257814437362E-01
   252  2.5100000000000E+00  1.6690230684466E-02 -9.5962525829530E-02
   253  2.5200000000000E+00  1.5980479743473E-02 -8.9528532296044E-02
   254  2.5300000000000E+00  1.5246884978600E-02 -8.3291470425323E-02
   255  2.5400000000000E+00  1.4495900762513E-02 -7.7264842753269E-02
   256  2.5500000000000E+00  1.3733586775914E-02 -7.1460364254196E-02
   257  2.5600000000000E+00  1.2965601357635E-02 -6.5887986606480E-02
   258  2.5700000000000E+00  1.2197197080143E-02 -6.0555929937681E-02
   259  2.5800000000000E+00  1.1433218516093E-02 -5.5470721835917E-02
   260  2.5900000000000E+00  1.0678102121157E-02 -5.0637243279286E-02
   261  2.6000000000000E+00  9.9358781658749E-03 -4.6058781162523E-02
   262  2.6100000000000E+00  9.2101746469261E-03 -4.1737087093012E-02
   263  2.6200000000000E+00  8.5042230812218E-03 -3.7672442041315E-02
   264  2.6300000000000E+00  7.8208660916492E-03 -3.3863726450075E-02
   265  2.6400000000000E+00  7.1625666815683E-03 -3.0308495366666E-02
   266  2.6500000000000E+00  6.5314190824852E-03 -2.7003058128463E-02
   267  2.6600000000000E+00  5.9291610623835E-03 -2.3942562138143E-02
   268  2.6700000000000E+00  5.3571875737574E-03 -2.1121080242650E-02
   269  2.6800000000000E+00  4.8165656100247E-03 -1.8531701199105E-02
   270  2.6900000000000E+00  4.3080501380906E-03 -1.6166622704292E-02
   271  2.7000000000000E+00  3.8321009729477E-03 -1.4017246468180E-02
   272  2.7100000000000E+00  3.3889004580418E-03 -1.2074274804714E-02
   273  2.7200000000000E+00  2.9783718056818E-03 -1.0327808179908E-02
   274  2.7300000000000E+00  2.6001979583025E-03 -8.7674431913005E-03
   275  2.7400000000000E+00  2.2538408606208E-03 -7.3823705392037E-03
   276  2.7500000000000E+00  1.9385615371488E-03 -6.1614741294039E-03
   277  2.7600000000000E+00  1.6534347121307E-03 -5.0934117246548E-03
   278  2.7700000000000E+00  1.3973813613091E-03 -4.1667497260479E-03
   279  2.7800000000000E+00  1.1691742111795E-03 -3.3700118801897E-03
   280  2.7900000000000E+00  9.6745962705420E-04 -2.6917805140562E-03
   281  2.8000000000000E+00  7.9069163032877E-04 -2.1205140733091E-03
   282  2.8100000000000E+00  6.3695990216705E-04 -1.6440298446056E-03
   283  2.8200000000000E+00  5.0449888667209E-04 -1.2511210883448E-03
   284  2.8300000000000E+00  3.9184738271070E-04 -9.3208146533273E-04
   285  2.8400000000000E+00  2.9745990152155E-04 -6.7752265213611E-04
   286  2.8500000000000E+00  2.1971461304448E-04 -4.7841758439845E-04
   287  2.8600000000000E+00  1.5698152400754E-04 -3.2632531895776E-04
   288  2.8700000000000E+00  1.0761271289415E-04 -2.1337510712782E-04
   289  2.8800000000000E+00  6.9961040916853E-05 -1.3233559401575E-04
   290  2.8900000000000E+00  4.2388080318100E-05 -7.6648555928181E-05
   291  2.9000000000000E+00  2.3271990683529E-05 -4.0467420659882E-05
   292  2.9100000000000E+00  1.1023653367939E-05 -1.8674995394445E-05
   293  2.9200000000000E+00  4.0764205932958E-06 -6.9224324723535E-06
   294  2.9300000000000E+00  9.2577486780077E-07 -1.6938408415953E-06
   295  2.9400000000000E+00  4.5831539682561E-08 -1.1609753785850E-07
   296  2.9500000000000E+00 -2.2225185597618E-08  6.8069237156129E-08
   297  2.9600000000000E+00  1.1584747179757E-10  5.5009793098100E-09
   298  2.97  0. -0.
   299  2.98 -0.  0.
   300  2.99 -0.  0.
   301  3.00  0. -0.
   302  3.01  0. -0.
   303  3.02  0.  0.
   304  3.03  0.  0.
   305  3.04  0.  0.
   306  3.05  0.  0.
   307  3.06  0.  0.
   308  3.07  0.  0.
   309  3.08  0.  0.
   310  3.09  0.  0.
   311  3.10  0.  0.
   312  3.11  0.  0.
   313  3.12  0.  0.
   314  3.13  0.  0.
   315  3.14  0.  0.
   316  3.15  0.  0.
   317  3.16  0.  0.
   318  3.17  0.  0.
   319  3.18  0.  0.
   320  3.19  0.  0.
   321  3.20  0.  0.
   322  3.21  0.  0.
   323  3.22  0.  0.
   324  3.23  0.  0.
   325  3.24  0.  0.
   326  3.25  0.  0.
   327  3.26  0.  0.
   328  3.27  0.  0.
   329  3.28  0.  0.
   330  3.29  0.  0.
   331  3.30  0.  0.
   332  3.31  0.  0.
   333  3.32  0.  0.
   334  3.33  0.  0.
   335  3.34  0.  0.
   336  3.35  0.  0.
   337  3.36  0.  0.
   338  3.37  0.  0.
   339  3.38  0.  0.
   340  3.39  0.  0.
   341  3.40  0.  0.
   342  3.41  0.  0.
   343  3.42  0.  0.
   344  3.43  0.  0.
   345  3.44  0.  0.
   346  3.45  0.  0.
   347  3.46  0.  0.
   348  3.47  0.  0.
   349  3.48  0.  0.
   350  3.49  0.  0.
   351  3.50  0.  0.
   352  3.51  0.  0.
   353  3.52  0.  0.
   354  3.53  0.  0.
   355  3.54  0.  0.
   356  3.55  0.  0.
   357  3.56  0.  0.
   358  3.57  0.  0.
   359  3.58  0.  0.
   360  3.59  0.  0.
   361  3.60  0.  0.
   362  3.61  0.  0.
   363  3.62  0.  0.
   364  3.63  0.  0.
   365  3.64  0.  0.
   366  3.65  0.  0.
   367  3.66  0.  0.
   368  3.67  0.  0.
   369  3.68  0.  0.
   370  3.69  0.  0.
   371  3.70  0.  0.
   372  3.71  0.  0.
   373  3.72  0.  0.
   374  3.73  0.  0.
   375  3.74  0.  0.
   376  3.75  0.  0.
   377  3.76  0.  0.
   378  3.77  0.  0.
   379  3.78  0.  0.
   380  3.79  0.  0.
   381  3.80  0.  0.
   382  3.81  0.  0.
   383  3.82  0.  0.
   384  3.83  0.  0.
   385  3.84  0.  0.
   386  3.85  0.  0.
   387  3.86  0.  0.
   388  3.87  0.  0.
   389  3.88  0.  0.
   390  3.89  0.  0.
   391  3.90  0.  0.
   392  3.91  0.  0.
   393  3.92  0.  0.
   394  3.93  0.  0.
   395  3.94  0.  0.
   396  3.95  0.  0.
   397  3.96  0.  0.
   398  3.97  0.  0.
   399  3.98  0.  0.
   400  3.99  0.  0.
   401  4.00  0.  0.
   402  4.01  0.  0.
   403  4.02  0.  0.
   404  4.03  0.  0.
   405  4.04  0.  0.
   406  4.05  0.  0.
   407  4.06  0.  0.
   408  4.07  0.  0.
   409  4.08  0.  0.
   410  4.09  0.  0.
   411  4.10  0.  0.
   412  4.11  0.  0.
   413  4.12  0.  0.
   414  4.13  0.  0.
   415  4.14  0.  0.
   416  4.15  0.  0.
   417  4.16  0.  0.
   418  4.17  0.  0.
   419  4.18  0.  0.
   420  4.19  0.  0.
   421  4.20  0.  0.
   422  4.21  0.  0.
   423  4.22  0.  0.
   424  4.23  0.  0.
   425  4.24  0.  0.
   426  4.25  0.  0.
   427  4.26  0.  0.
   428  4.27  0.  0.
   429  4.28  0.  0.
   430  4.29  0.  0.
   431  4.30  0.  0.
   432  4.31  0.  0.
   433  4.32  0.  0.
   434  4.33  0.  0.
   435  4.34  0.  0.
   436  4.35  0.  0.
   437  4.36  0.  0.
   438  4.37  0.  0.
   439  4.38  0.  0.
   440  4.39  0.  0.
   441  4.40  0.  0.
   442  4.41  0.  0.
   443  4.42  0.  0.
   444  4.43  0.  0.
   445  4.44  0.  0.
   446  4.45  0.  0.
   447  4.46  0.  0.
   448  4.47  0.  0.
   449  4.48  0.  0.
   450  4.49  0.  0.
   451  4.50  0.  0.
   452  4.51  0.  0.
   453  4.52  0.  0.
   454  4.53  0.  0.
   455  4.54  0.  0.
   456  4.55  0.  0.
   457  4.56  0.  0.
   458  4.57  0.  0.
   459  4.58  0.  0.
   460  4.59  0.  0.
   461  4.60  0.  0.
   462  4.61  0.  0.
   463  4.62  0.  0.
   464  4.63  0.  0.
   465  4.64  0.  0.
   466  4.65  0.  0.
   467  4.66  0.  0.
   468  4.67  0.  0.
   469  4.68  0.  0.
   470  4.69  0.  0.
   471  4.70  0.  0.
   472  4.71  0.  0.
   473  4.72  0.  0.
   474  4.73  0.  0.
   475  4.74  0.  0.
   476  4.75  0.  0.
   477  4.76  0.  0.
   478  4.77  0.  0.
   479  4.78  0.  0.
   480  4.79  0.  0.
   481  4.80  0.  0.
   482  4.81  0.  0.
   483  4.82  0.  0.
   484  4.83  0.  0.
   485  4.84  0.  0.
   486  4.85  0.  0.
   487  4.86  0.  0.
   488  4.87  0.  0.
   489  4.88  0.  0.
   490  4.89  0.  0.
   491  4.90  0.  0.
   492  4.91  0.  0.
   493  4.92  0.  0.
   494  4.93  0.  0.
   495  4.94  0.  0.
   496  4.95  0.  0.
   497  4.96  0.  0.
   498  4.97  0.  0.
   499  4.98  0.  0.
   500  4.99  0.  0.
   501  5.00  0.  0.
   502  5.01  0.  0.
   503  5.02  0.  0.
   504  5.03  0.  0.
   505  5.04  0.  0.
   506  5.05  0.  0.
   507  5.06  0.  0.
   508  5.07  0.  0.
   509  5.08  0.  0.
   510  5.09  0.  0.
   511  5.10  0.  0.
   512  5.11  0.  0.
   513  5.12  0.  0.
   514  5.13  0.  0.
   515  5.14  0.  0.
   516  5.15  0.  0.
   517  5.16  0.  0.
   518  5.17  0.  0.
   519  5.18  0.  0.
   520  5.19  0.  0.
   521  5.20  0.  0.
   522  5.21  0.  0.
   523  5.22  0.  0.
   524  5.23  0.  0.
   525  5.24  0.  0.
   526  5.25  0.  0.
   527  5.26  0.  0.
   528  5.27  0.  0.
   529  5.28  0.  0.
   530  5.29  0.  0.
   531  5.30  0.  0.
   532  5.31  0.  0.
   533  5.32  0.  0.
   534  5.33  0.  0.
   535  5.34  0.  0.
   536  5.35  0.  0.
   537  5.36  0.  0.
   538  5.37  0.  0.
   539  5.38  0.  0.
   540  5.39  0.  0.
   541  5.40  0.  0.
   542  5.41  0.  0.
   543  5.42  0.  0.
   544  5.43  0.  0.
   545  5.44  0.  0.
   546  5.45  0.  0.
   547  5.46  0.  0.
   548  5.47  0.  0.
   549  5.48  0.  0.
   550  5.49  0.  0.
   551  5.50  0.  0.
   552  5.51  0.  0.
   553  5.52  0.  0.
   554  5.53  0.  0.
   555  5.54  0.  0.
   556  5.55  0.  0.
   557  5.56  0.  0.
   558  5.57  0.  0.
   559  5.58  0.  0.
   560  5.59  0.  0.
   561  5.60  0.  0.
   562  5.61  0.  0.
   563  5.62  0.  0.
   564  5.63  0.  0.
   565  5.64  0.  0.
   566  5.65  0.  0.
   567  5.66  0.  0.
   568  5.67  0.  0.
   569  5.68  0.  0.
   570  5.69  0.  0.
   571  5.70  0.  0.
   572  5.71  0.  0.
   573  5.72  0.  0.
   574  5.73  0.  0.
   575  5.74  0.  0.
   576  5.75  0.  0.
   577  5.76  0.  0.
   578  5.77  0.  0.
   579  5.78  0.  0.
   580  5.79  0.  0.
   581  5.80  0.  0.
   582  5.81  0.  0.
   583  5.82  0.  0.
   584  5.83  0.  0.
   585  5.84  0.  0.
   586  5.85  0.  0.
   587  5.86  0.  0.
   588  5.87  0.  0.
   589  5.88  0.  0.
   590  5.89  0.  0.
   591  5.90  0.  0.
   592  5.91  0.  0.
   593  5.92  0.  0.
   594  5.93  0.  0.
   595  5.94  0.  0.
   596  5.95  0.  0.
   597  5.96  0.  0.
   598  5.97  0.  0.
   599  5.98  0.  0.
   600  5.99  0.  0.
   1                         2.3248395545450E+00  3.4249433773709E-01
     1  0.0000000000000E+00  2.4122870367904E-11 -5.0534871426366E-11
     2  1.0000000000000E-02  4.7107588743560E-04 -2.4213496228554E-04
     3  2.0000000000000E-02  1.8834084115936E-03 -9.6749251849817E-04
     4  3.0000000000000E-02  4.2343148831261E-03 -2.1729355206861E-03
     5  4.0000000000000E-02  7.5193332241785E-03 -3.8532515090732E-03
     6  5.0000000000000E-02  1.1732235531123E-02 -6.0011768004454E-03
     7  6.0000000000000E-02  1.6865046974832E-02 -8.6074300284591E-03
     8  7.0000000000000E-02  2.2908069951569E-02 -1.1660754953944E-02
     9  8.0000000000000E-02  2.9849913373442E-02 -1.5147972312734E-02
    10  9.0000000000000E-02  3.7677526963964E-02 -1.9054040419814E-02
    11  1.0000000000000E-01  4.6376240401466E-02 -2.3362124201047E-02
    12  1.1000000000000E-01  5.5929807131227E-02 -2.8053672278333E-02
    13  1.2000000000000E-01  6.6320452646196E-02 -3.3108501690595E-02
    14  1.3000000000000E-01  7.7528927016303E-02 -3.8504889791902E-02
    15  1.4000000000000E-01  8.9534561427592E-02 -4.4219672829671E-02
    16  1.5000000000000E-01  1.0231532847498E-01 -5.0228350670106E-02
    17  1.6000000000000E-01  1.1584790593627E-01 -5.6505197105453E-02
    18  1.7000000000000E-01  1.3010774374052E-01 -6.3023375148148E-02
    19  1.8000000000000E-01  1.4506913383044E-01 -6.9755056690827E-02
    20  1.9000000000000E-01  1.6070528260739E-01 -7.6671545888643E-02
    21  2.0000000000000E-01  1.7698838563714E-01 -8.3743405601225E-02
    22  2.1000000000000E-01  1.9388970428670E-01 -9.0940586216610E-02
    23  2.2000000000000E-01  2.1137964395600E-01 -9.8232556167919E-02
    24  2.3000000000000E-01  2.2942783356342E-01 -1.0558843344624E-01
    25  2.4000000000000E-01  2.4800320594130E-01 -1.1297711740955E-01
    26  2.5000000000000E-01  2.6707407879674E-01 -1.2036742018813E-01
    27  2.6000000000000E-01  2.8660823589334E-01 -1.2772819699113E-01
    28  2.7000000000000E-01  3.0657300811245E-01 -1.3502847462761E-01
    29  2.8000000000000E-01  3.2693535405667E-01 -1.4223757756743E-01
    30  2.9000000000000E-01  3.4766193986449E-01 -1.4932525088380E-01
    31  3.0000000000000E-01  3.6871921791295E-01 -1.5626177943887E-01
    32  3.1000000000000E-01  3.9007350409452E-01 -1.6301810269765E-01
    33  3.2000000000000E-01  4.1169105336572E-01 -1.6956592458228E-01