H     ONCVPSP-4.0.1  r_core=   1.13706
      1.0000      1.0000      200312    zatom,zion,pspd
     8      11   0     4   600     0    pspcod,pspxc,lmax,lloc,mmax,r2well
  5.99000000  0.00000000  0.00000000    rchrg fchrg qchrg
     2     0     0     0     0    nproj
     1     1           extension_switch
   0                        -1.1354097668426E+00 -3.7874404239482E-01
     1  0.0000000000000E+00 -5.7637805195299E-08  3.7064094626782E-08
     2  1.0000000000000E-02  7.2742461894953E-02 -2.2133923070946E-02
     3  2.0000000000000E-02  1.4539981863851E-01 -4.3933720611580E-02
     4  3.0000000000000E-02  2.1789173751846E-01 -6.5070078852229E-02
     5  4.0000000000000E-02  2.9014707092577E-01 -8.5223087890362E-02
     6  5.0000000000000E-02  3.6210756527739E-01 -1.0408640473758E-01
     7  6.0000000000000E-02  4.3373055327917E-01 -1.2137079799801E-01
     8  7.0000000000000E-02  5.0499036177188E-01 -1.3680691402331E-01
     9  8.0000000000000E-02  5.7587822504137E-01 -1.5014714145378E-01
    10  9.0000000000000E-02  6.4640056148596E-01 -1.6116649455875E-01
    11  1.0000000000000E-01  7.1657554742850E-01 -1.6966248399494E-01
    12  1.1000000000000E-01  7.8642800283385E-01 -1.7545399456425E-01
    13  1.2000000000000E-01  8.5598268672182E-01 -1.7837924118320E-01
    14  1.3000000000000E-01  9.2525618201916E-01 -1.7829292443002E-01
    15  1.4000000000000E-01  9.9424762732040E-01 -1.7506275356891E-01
    16  1.5000000000000E-01  1.0629286234780E+00 -1.6856554581865E-01
    17  1.6000000000000E-01  1.1312327032686E+00 -1.5868314395024E-01
    18  1.7000000000000E-01  1.1990448000330E+00 -1.4529841841895E-01
    19  1.8000000000000E-01  1.2661911840088E+00 -1.2829163381204E-01
    20  1.9000000000000E-01  1.3324303513747E+00 -1.0753746143411E-01
    21  2.0000000000000E-01  1.3974453496585E+00 -8.2902909760261E-02
    22  2.1000000000000E-01  1.4608380035478E+00 -5.4246422097859E-02
    23  2.2000000000000E-01  1.5221254673387E+00 -2.1418356386506E-02
    24  2.3000000000000E-01  1.5807394749116E+00  1.5736983647371E-02
    25  2.4000000000000E-01  1.6360285865254E+00  5.7377652626013E-02
    26  2.5000000000000E-01  1.6872636457130E+00  1.0365865405393E-01
    27  2.6000000000000E-01  1.7336465615377E+00  1.5472483950956E-01
    28  2.7000000000000E-01  1.7743224242621E+00  2.1070221439791E-01
    29  2.8000000000000E-01  1.8083948493191E+00  2.7168782586035E-01
    30  2.9000000000000E-01  1.8349443288378E+00  3.3773848560197E-01
    31  3.0000000000000E-01  1.8530492555269E+00  4.0885865438086E-01
    32  3.1000000000000E-01  1.8618091741511E+00  4.8498788308789E-01
    33  3.2000000000000E-01  1.8603697147738E+00  5.6598826522301E-01
    34  3.3000000000000E-01  1.8479485728058E+00  6.5163240485129E-01
    35  3.4000000000000E-01  1.8238618268019E+00  7.4159244079584E-01
    36  3.5000000000000E-01  1.7875498285585E+00  8.3543069025979E-01
    37  3.6000000000000E-01  1.7386018635534E+00  9.3259248207405E-01
    38  3.7000000000000E-01  1.6767787646677E+00  1.0324017406354E+00
    39  3.8000000000000E-01  1.6020326693332E+00  1.1340598561479E+00
    40  3.9000000000000E-01  1.5145231399194E+00  1.2366483353917E+00
    41  4.0000000000000E-01  1.4146289187461E+00  1.3391356708216E+00
    42  4.1000000000000E-01  1.3029546613035E+00  1.4403887958220E+00
    43  4.2000000000000E-01  1.1803320820784E+00  1.5391894123415E+00
    44  4.3000000000000E-01  1.0478150542124E+00  1.6342553863253E+00
    45  4.4000000000000E-01  9.0666832383685E-01  1.7242673091135E+00
    46  4.5000000000000E-01  7.5834962868397E-01  1.8079002223490E+00
    47  4.6000000000000E-01  6.0448514442125E-01  1.8838604032007E+00
    48  4.7000000000000E-01  4.4683831684183E-01  1.9509270091979E+00
    49  4.8000000000000E-01  2.8727226920554E-01  2.0079982910182E+00
    50  4.9000000000000E-01  1.2770609795110E-01  2.0541419967442E+00
    51  5.0000000000000E-01 -2.9933823055449E-02  2.0886455227751E+00
    52  5.1000000000000E-01 -1.8375104073409E-01  2.1109836079693E+00
    53  5.2000000000000E-01 -3.3189784835513E-01  2.1207189593124E+00
    54  5.3000000000000E-01 -4.7260492249507E-01  2.1175034280927E+00
    55  5.4000000000000E-01 -6.0421335884627E-01  2.1010988925061E+00
    56  5.5000000000000E-01 -7.2520530927442E-01  2.0713961749704E+00
    57  5.6000000000000E-01 -8.3423240725105E-01  2.0284313693807E+00
    58  5.7000000000000E-01 -9.3014121422065E-01  1.9723990289895E+00
    59  5.8000000000000E-01 -1.0119949855136E+00  1.9036617417235E+00
    60  5.9000000000000E-01 -1.0790911416430E+00  1.8227557102954E+00
    61  6.0000000000000E-01 -1.1309739376553E+00  1.7303920600087E+00
    62  6.1000000000000E-01 -1.1674419456296E+00  1.6274537110717E+00
    63  6.2000000000000E-01 -1.1885501007205E+00  1.5149877741533E+00
    64  6.3000000000000E-01 -1.1946062052157E+00  1.3941935535856E+00
    65  6.4000000000000E-01 -1.1861619331032E+00  1.2664063665724E+00
    66  6.5000000000000E-01 -1.1639985263479E+00  1.1330775087087E+00
    67  6.6000000000000E-01 -1.1291075180890E+00  9.9575080937100E-01
    68  6.7000000000000E-01 -1.0826669531960E+00  8.5603632252825E-01
    69  6.8000000000000E-01 -1.0260136993985E+00  7.1558178703433E-01
    70  6.9000000000000E-01 -9.6061254825208E-01  5.7604256120790E-01
    71  7.0000000000000E-01 -8.8802289195195E-01  4.3905078875196E-01
    72  7.1000000000000E-01 -8.0986382622289E-01  3.0618458358670E-01
    73  7.2000000000000E-01 -7.2777856935811E-01  1.7893802921273E-01
    74  7.3000000000000E-01 -6.4339910206820E-01  5.8692774092225E-02
    75  7.4000000000000E-01 -5.5831192196848E-01 -5.3308031176268E-02
    76  7.5000000000000E-01 -4.7402576885536E-01 -1.5598276904869E-01
    77  7.6000000000000E-01 -3.9194211571869E-01 -2.4843075470199E-01
    78  7.7000000000000E-01 -3.1332913708125E-01 -3.2994748741873E-01
    79  7.8000000000000E-01 -2.3929976134178E-01 -4.0003535420993E-01
    80  7.9000000000000E-01 -1.7079429289409E-01 -4.5840950959501E-01
    81  8.0000000000000E-01 -1.0856795652046E-01 -5.0499878589093E-01
    82  8.1000000000000E-01 -5.3183572109419E-02 -5.3994162712329E-01
    83  8.2000000000000E-01 -5.0094196647168E-03 -5.6357717676505E-01
    84  8.3000000000000E-01  3.5777792588111E-02 -5.7643178116143E-01
    85  8.4000000000000E-01  6.9185090828359E-02 -5.7920130099488E-01
    86  8.5000000000000E-01  9.5390896609459E-02 -5.7272973495015E-01
    87  8.6000000000000E-01  1.1472867792194E-01 -5.5798476208218E-01
    88  8.7000000000000E-01  1.2766719009231E-01 -5.3603089402569E-01
    89  8.8000000000000E-01  1.3478799177144E-01 -5.0800098780015E-01
    90  8.9000000000000E-01  1.3676098985410E-01 -4.7506691555131E-01
    91  9.0000000000000E-01  1.3431880657607E-01 -4.3841020127703E-01
    92  9.1000000000000E-01  1.2823078151525E-01 -3.9919343226171E-01
    93  9.2000000000000E-01  1.1927741147313E-01 -3.5853322068129E-01
    94  9.3000000000000E-01  1.0822599977749E-01 -3.1747544048849E-01
    95  9.4000000000000E-01  9.5808230341542E-02 -2.7697339109784E-01
    96  9.5000000000000E-01  8.2700302788190E-02 -2.3786944500961E-01
    97  9.6000000000000E-01  6.9506171086727E-02 -2.0088063174650E-01
    98  9.7000000000000E-01  5.6744313031701E-02 -1.6658848474295E-01
    99  9.8000000000000E-01  4.4838336957211E-02 -1.3543335162299E-01
   100  9.9000000000000E-01  3.4111596689927E-02 -1.0771322762242E-01
   101  1.0000000000000E+00  2.4785853941923E-02 -8.3587040122163E-02
   102  1.0100000000000E+00  1.6983888836811E-02 -6.3082173160275E-02
   103  1.0200000000000E+00  1.0735832846520E-02 -4.6105898401142E-02
   104  1.0300000000000E+00  5.9888746142731E-03 -3.2460258622077E-02
   105  1.0400000000000E+00  2.6198854929692E-03 -2.1859853276123E-02
   106  1.0500000000000E+00  4.5041614091097E-04 -1.3951885762599E-02
   107  1.0600000000000E+00 -7.3654002319009E-04 -8.3377847013024E-03
   108  1.0700000000000E+00 -1.1788040455423E-03 -4.5955464927695E-03
   109  1.0800000000000E+00 -1.1168703472479E-03 -2.3021451992416E-03
   110  1.0900000000000E+00 -8.1758131096128E-04 -1.0172058531565E-03
   111  1.1000000000000E+00 -4.8135281330852E-04 -3.7218478321356E-04
   112  1.1100000000000E+00 -2.0553574379476E-04 -1.0904784635176E-04
   113  1.1200000000000E+00 -4.5091129071755E-05 -2.8644245010400E-05
   114  1.1300000000000E+00  1.3892727970833E-06 -6.0458537530454E-06
   115  1.1400000000000E+00 -5.2591537536342E-07  4.5336581426029E-07
   116  1.1500000000000E+00  3.1381762920903E-08 -3.2317688848040E-08
   117  1.16  0. -0.
   118  1.17  0.  0.
   119  1.18  0.  0.
   120  1.19  0.  0.
   121  1.20  0.  0.
   122  1.21  0.  0.
   123  1.22  0.  0.
   124  1.23  0.  0.
   125  1.24  0.  0.
   126  1.25  0.  0.
   127  1.26  0.  0.
   128  1.27  0.  0.
   129  1.28  0.  0.
   130  1.29  0.  0.
   131  1.30  0.  0.
   132  1.31  0.  0.
   133  1.32  0.  0.
   134  1.33  0.  0.
   135  1.34  0.  0.
   136  1.35  0.  0.
   137  1.36  0.  0.
   138  1.37  0.  0.
   139  1.38  0.  0.
   140  1.39  0.  0.
   141  1.40  0.  0.
   142  1.41  0.  0.
   143  1.42  0.  0.
   144  1.43  0.  0.
   145  1.44  0.  0.
   146  1.45  0.  0.
   147  1.46  0.  0.
   148  1.47  0.  0.
   149  1.48  0.  0.
   150  1.49  0.  0.
   151  1.50  0.  0.
   152  1.51  0.  0.
   153  1.52  0.  0.
   154  1.53  0.  0.
   155  1.54  0.  0.
   156  1.55  0.  0.
   157  1.56  0.  0.
   158  1.57  0.  0.
   159  1.58  0.  0.
   160  1.59  0.  0.
   161  1.60  0.  0.
   162  1.61  0.  0.
   163  1.62  0.  0.
   164  1.63  0.  0.
   165  1.64  0.  0.
   166  1.65  0.  0.
   167  1.66  0.  0.
   168  1.67  0.  0.
   169  1.68  0.  0.
   170  1.69  0.  0.
   171  1.70  0.  0.
   172  1.71  0.  0.
   173  1.72  0.  0.
   174  1.73  0.  0.
   175  1.74  0.  0.
   176  1.75  0.  0.
   177  1.76  0.  0.
   178  1.77  0.  0.
   179  1.78  0.  0.
   180  1.79  0.  0.
   181  1.80  0.  0.
   182  1.81  0.  0.
   183  1.82  0.  0.
   184  1.83  0.  0.
   185  1.84  0.  0.
   186  1.85  0.  0.
   187  1.86  0.  0.
   188  1.87  0.  0.
   189  1.88  0.  0.
   190  1.89  0.  0.
   191  1.90  0.  0.
   192  1.91  0.  0.
   193  1.92  0.  0.
   194  1.93  0.  0.
   195  1.94  0.  0.
   196  1.95  0.  0.
   197  1.96  0.  0.
   198  1.97  0.  0.
   199  1.98  0.  0.
   200  1.99  0.  0.
   201  2.00  0.  0.
   202  2.01  0.  0.
   203  2.02  0.  0.
   204  2.03  0.  0.
   205  2.04  0.  0.
   206  2.05  0.  0.
   207  2.06  0.  0.
   208  2.07  0.  0.
   209  2.08  0.  0.
   210  2.09  0.  0.
   211  2.10  0.  0.
   212  2.11  0.  0.
   213  2.12  0.  0.
   214  2.13  0.  0.
   215  2.14  0.  0.
   216  2.15  0.  0.
   217  2.16  0.  0.
   218  2.17  0.  0.
   219  2.18  0.  0.
   220  2.19  0.  0.
   221  2.20  0.  0.
   222  2.21  0.  0.
   223  2.22  0.  0.
   224  2.23  0.  0.
   225  2.24  0.  0.
   226  2.25  0.  0.
   227  2.26  0.  0.
   228  2.27  0.  0.
   229  2.28  0.  0.
   230  2.29  0.  0.
   231  2.30  0.  0.
   232  2.31  0.  0.
   233  2.32  0.  0.
   234  2.33  0.  0.
   235  2.34  0.  0.
   236  2.35  0.  0.
   237  2.36  0.  0.
   238  2.37  0.  0.
   239  2.38  0.  0.
   240  2.39  0.  0.
   241  2.40  0.  0.
   242  2.41  0.  0.
   243  2.42  0.  0.
   244  2.43  0.  0.
   245  2.44  0.  0.
   246  2.45  0.  0.
   247  2.46  0.  0.
   248  2.47  0.  0.
   249  2.48  0.  0.
   250  2.49  0.  0.
   251  2.50  0.  0.
   252  2.51  0.  0.
   253  2.52  0.  0.
   254  2.53  0.  0.
   255  2.54  0.  0.
   256  2.55  0.  0.
   257  2.56  0.  0.
   258  2.57  0.  0.
   259  2.58  0.  0.
   260  2.59  0.  0.
   261  2.60  0.  0.
   262  2.61  0.  0.
   263  2.62  0.  0.
   264  2.63  0.  0.
   265  2.64  0.  0.
   266  2.65  0.  0.
   267  2.66  0.  0.
   268  2.67  0.  0.
   269  2.68  0.  0.
   270  2.69  0.  0.
   271  2.70  0.  0.
   272  2.71  0.  0.
   273  2.72  0.  0.
   274  2.73  0.  0.
   275  2.74  0.  0.
   276  2.75  0.  0.
   277  2.76  0.  0.
   278  2.77  0.  0.
   279  2.78  0.  0.
   280  2.79  0.  0.
   281  2.80  0.  0.
   282  2.81  0.  0.
   283  2.82  0.  0.
   284  2.83  0.  0.
   285  2.84  0.  0.
   286  2.85  0.  0.
   287  2.86  0.  0.
   288  2.87  0.  0.
   289  2.88  0.  0.
   290  2.89  0.  0.
   291  2.90  0.  0.
   292  2.91  0.  0.
   293  2.92  0.  0.
   294  2.93  0.  0.
   295  2.94  0.  0.
   296  2.95  0.  0.
   297  2.96  0.  0.
   298  2.97  0.  0.
   299  2.98  0.  0.
   300  2.99  0.  0.
   301  3.00  0.  0.
   302  3.01  0.  0.
   303  3.02  0.  0.
   304  3.03  0.  0.
   305  3.04  0.  0.
   306  3.05  0.  0.
   307  3.06  0.  0.
   308  3.07  0.  0.
   309  3.08  0.  0.
   310  3.09  0.  0.
   311  3.10  0.  0.
   312  3.11  0.  0.
   313  3.12  0.  0.
   314  3.13  0.  0.
   315  3.14  0.  0.
   316  3.15  0.  0.
   317  3.16  0.  0.
   318  3.17  0.  0.
   319  3.18  0.  0.
   320  3.19  0.  0.
   321  3.20  0.  0.
   322  3.21  0.  0.
   323  3.22  0.  0.
   324  3.23  0.  0.
   325  3.24  0.  0.
   326  3.25  0.  0.
   327  3.26  0.  0.
   328  3.27  0.  0.
   329  3.28  0.  0.
   330  3.29  0.  0.
   331  3.30  0.  0.
   332  3.31  0.  0.
   333  3.32  0.  0.
   334  3.33  0.  0.
   335  3.34  0.  0.
   336  3.35  0.  0.
   337  3.36  0.  0.
   338  3.37  0.  0.
   339  3.38  0.  0.
   340  3.39  0.  0.
   341  3.40  0.  0.
   342  3.41  0.  0.
   343  3.42  0.  0.
   344  3.43  0.  0.
   345  3.44  0.  0.
   346  3.45  0.  0.
   347  3.46  0.  0.
   348  3.47  0.  0.
   349  3.48  0.  0.
   350  3.49  0.  0.
   351  3.50  0.  0.
   352  3.51  0.  0.
   353  3.52  0.  0.
   354  3.53  0.  0.
   355  3.54  0.  0.
   356  3.55  0.  0.
   357  3.56  0.  0.
   358  3.57  0.  0.
   359  3.58  0.  0.
   360  3.59  0.  0.
   361  3.60  0.  0.
   362  3.61  0.  0.
   363  3.62  0.  0.
   364  3.63  0.  0.
   365  3.64  0.  0.
   366  3.65  0.  0.
   367  3.66  0.  0.
   368  3.67  0.  0.
   369  3.68  0.  0.
   370  3.69  0.  0.
   371  3.70  0.  0.
   372  3.71  0.  0.
   373  3.72  0.  0.
   374  3.73  0.  0.
   375  3.74  0.  0.
   376  3.75  0.  0.
   377  3.76  0.  0.
   378  3.77  0.  0.
   379  3.78  0.  0.
   380  3.79  0.  0.
   381  3.80  0.  0.
   382  3.81  0.  0.
   383  3.82  0.  0.
   384  3.83  0.  0.
   385  3.84  0.  0.
   386  3.85  0.  0.
   387  3.86  0.  0.
   388  3.87  0.  0.
   389  3.88  0.  0.
   390  3.89  0.  0.
   391  3.90  0.  0.
   392  3.91  0.  0.
   393  3.92  0.  0.
   394  3.93  0.  0.
   395  3.94  0.  0.
   396  3.95  0.  0.
   397  3.96  0.  0.
   398  3.97  0.  0.
   399  3.98  0.  0.
   400  3.99  0.  0.
   401  4.00  0.  0.
   402  4.01  0.  0.
   403  4.02  0.  0.
   404  4.03  0.  0.
   405  4.04  0.  0.
   406  4.05  0.  0.
   407  4.06  0.  0.
   408  4.07  0.  0.
   409  4.08  0.  0.
   410  4.09  0.  0.
   411  4.10  0.  0.
   412  4.11  0.  0.
   413  4.12  0.  0.
   414  4.13  0.  0.
   415  4.14  0.  0.
   416  4.15  0.  0.
   417  4.16  0.  0.
   418  4.17  0.  0.
   419  4.18  0.  0.
   420  4.19  0.  0.
   421  4.20  0.  0.
   422  4.21  0.  0.
   423  4.22  0.  0.
   424  4.23  0.  0.
   425  4.24  0.  0.
   426  4.25  0.  0.
   427  4.26  0.  0.
   428  4.27  0.  0.
   429  4.28  0.  0.
   430  4.29  0.  0.
   431  4.30  0.  0.
   432  4.31  0.  0.
   433  4.32  0.  0.
   434  4.33  0.  0.
   435  4.34  0.  0.
   436  4.35  0.  0.
   437  4.36  0.  0.
   438  4.37  0.  0.
   439  4.38  0.  0.
   440  4.39  0.  0.
   441  4.40  0.  0.
   442  4.41  0.  0.
   443  4.42  0.  0.
   444  4.43  0.  0.
   445  4.44  0.  0.
   446  4.45  0.  0.
   447  4.46  0.  0.
   448  4.47  0.  0.
   449  4.48  0.  0.
   450  4.49  0.  0.
   451  4.50  0.  0.
   452  4.51  0.  0.
   453  4.52  0.  0.
   454  4.53  0.  0.
   455  4.54  0.  0.
   456  4.55  0.  0.
   457  4.56  0.  0.
   458  4.57  0.  0.
   459  4.58  0.  0.
   460  4.59  0.  0.
   461  4.60  0.  0.
   462  4.61  0.  0.
   463  4.62  0.  0.
   464  4.63  0.  0.
   465  4.64  0.  0.
   466  4.65  0.  0.
   467  4.66  0.  0.
   468  4.67  0.  0.
   469  4.68  0.  0.
   470  4.69  0.  0.
   471  4.70  0.  0.
   472  4.71  0.  0.
   473  4.72  0.  0.
   474  4.73  0.  0.
   475  4.74  0.  0.
   476  4.75  0.  0.
   477  4.76  0.  0.
   478  4.77  0.  0.
   479  4.78  0.  0.
   480  4.79  0.  0.
   481  4.80  0.  0.
   482  4.81  0.  0.
   483  4.82  0.  0.
   484  4.83  0.  0.
   485  4.84  0.  0.
   486  4.85  0.  0.
   487  4.86  0.  0.
   488  4.87  0.  0.
   489  4.88  0.  0.
   490  4.89  0.  0.
   491  4.90  0.  0.
   492  4.91  0.  0.
   493  4.92  0.  0.
   494  4.93  0.  0.
   495  4.94  0.  0.
   496  4.95  0.  0.
   497  4.96  0.  0.
   498  4.97  0.  0.
   499  4.98  0.  0.
   500  4.99  0.  0.
   501  5.00  0.  0.
   502  5.01  0.  0.
   503  5.02  0.  0.
   504  5.03  0.  0.
   505  5.04  0.  0.
   506  5.05  0.  0.
   507  5.06  0.  0.
   508  5.07  0.  0.
   509  5.08  0.  0.
   510  5.09  0.  0.
   511  5.10  0.  0.
   512  5.11  0.  0.
   513  5.12  0.  0.
   514  5.13  0.  0.
   515  5.14  0.  0.
   516  5.15  0.  0.
   517  5.16  0.  0.
   518  5.17  0.  0.
   519  5.18  0.  0.
   520  5.19  0.  0.
   521  5.20  0.  0.
   522  5.21  0.  0.
   523  5.22  0.  0.
   524  5.23  0.  0.
   525  5.24  0.  0.
   526  5.25  0.  0.
   527  5.26  0.  0.
   528  5.27  0.  0.
   529  5.28  0.  0.
   530  5.29  0.  0.
   531  5.30  0.  0.
   532  5.31  0.  0.
   533  5.32  0.  0.
   534  5.33  0.  0.
   535  5.34  0.  0.
   536  5.35  0.  0.
   537  5.36  0.  0.
   538  5.37  0.  0.
   539  5.38  0.  0.
   540  5.39  0.  0.
   541  5.40  0.  0.
   542  5.41  0.  0.
   543  5.42  0.  0.
   544  5.43  0.  0.
   545  5.44  0.  0.
   546  5.45  0.  0.
   547  5.46  0.  0.
   548  5.47  0.  0.
   549  5.48  0.  0.
   550  5.49  0.  0.
   551  5.50  0.  0.
   552  5.51  0.  0.
   553  5.52  0.  0.
   554  5.53  0.  0.
   555  5.54  0.  0.
   556  5.55  0.  0.
   557  5.56  0.  0.
   558  5.57  0.  0.
   559  5.58  0.  0.
   560  5.59  0.  0.
   561  5.60  0.  0.
   562  5.61  0.  0.
   563  5.62  0.  0.
   564  5.63  0.  0.
   565  5.64  0.  0.
   566  5.65  0.  0.
   567  5.66  0.  0.
   568  5.67  0.  0.
   569  5.68  0.  0.
   570  5.69  0.  0.
   571  5.70  0.  0.
   572  5.71  0.  0.
   573  5.72  0.  0.
   574  5.73  0.  0.
   575  5.74  0.  0.
   576  5.75  0.  0.
   577  5.76  0.  0.
   578  5.77  0.  0.
   579  5.78  0.  0.
   580  5.79  0.  0.
   581  5.80  0.  0.
   582  5.81  0.  0.
   583  5.82  0.  0.
   584  5.83  0.  0.
   585  5.84  0.  0.
   586  5.85  0.  0.
   587  5.86  0.  0.
   588  5.87  0.  0.
   589  5.88  0.  0.
   590  5.89  0.  0.
   591  5.90  0.  0.
   592  5.91  0.  0.
   593  5.92  0.  0.
   594  5.93  0.  0.
   595  5.94  0.  0.
   596  5.95  0.  0.
   597  5.96  0.  0.
   598  5.97  0.  0.
   599  5.98  0.  0.
   600  5.99  0.  0.
   4
     1  0.0000000000000E+00 -4.5444396270495E+00
     2  1.0000000000000E-02 -4.5422987932707E+00
     3  2.0000000000000E-02 -4.5358868579677E+00
     4  3.0000000000000E-02 -4.5252359887845E+00
     5  4.0000000000000E-02 -4.5103989796235E+00
     6  5.0000000000000E-02 -4.4914483068928E+00
     7  6.0000000000000E-02 -4.4684747963657E+00
     8  7.0000000000000E-02 -4.4415860439472E+00
     9  8.0000000000000E-02 -4.4109046738140E+00
    10  9.0000000000000E-02 -4.3765665174281E+00
    11  1.0000000000000E-01 -4.3387187942089E+00
    12  1.1000000000000E-01 -4.2975183618018E+00
    13  1.2000000000000E-01 -4.2531300918079E+00
    14  1.3000000000000E-01 -4.2057254089010E+00
    15  1.4000000000000E-01 -4.1554810162788E+00
    16  1.5000000000000E-01 -4.1025778139130E+00
    17  1.6000000000000E-01 -4.0472000038606E+00
    18  1.7000000000000E-01 -3.9895343663366E+00
    19  1.8000000000000E-01 -3.9297696822020E+00
    20  1.9000000000000E-01 -3.8680962741182E+00
    21  2.0000000000000E-01 -3.8047056364184E+00
    22  2.1000000000000E-01 -3.7397901237584E+00
    23  2.2000000000000E-01 -3.6735426703685E+00
    24  2.3000000000000E-01 -3.6061565158054E+00
    25  2.4000000000000E-01 -3.5378249149311E+00
    26  2.5000000000000E-01 -3.4687408149698E+00
    27  2.6000000000000E-01 -3.3990964858554E+00
    28  2.7000000000000E-01 -3.3290830934131E+00
    29  2.8000000000000E-01 -3.2588902083685E+00
    30  2.9000000000000E-01 -3.1887052464468E+00
    31  3.0000000000000E-01 -3.1187128378335E+00
    32  3.1000000000000E-01 -3.0490941252513E+00
    33  3.2000000000000E-01 -2.9800259915721E+00
    34  3.3000000000000E-01 -2.9116802194235E+00
    35  3.4000000000000E-01 -2.8442225853047E+00
    36  3.5000000000000E-01 -2.7778118912109E+00
    37  3.6000000000000E-01 -2.7125989379435E+00
    38  3.7000000000000E-01 -2.6487254429005E+00
    39  3.8000000000000E-01 -2.5863229064848E+00
    40  3.9000000000000E-01 -2.5255114304073E+00
    41  4.0000000000000E-01 -2.4663984907025E+00
    42  4.1000000000000E-01 -2.4090776688686E+00
    43  4.2000000000000E-01 -2.3536273435288E+00
    44  4.3000000000000E-01 -2.3001093446798E+00
    45  4.4000000000000E-01 -2.2485675726341E+00
    46  4.5000000000000E-01 -2.1990265832612E+00
    47  4.6000000000000E-01 -2.1514901404900E+00
    48  4.7000000000000E-01 -2.1059397372900E+00
    49  4.8000000000000E-01 -2.0623330854310E+00
    50  4.9000000000000E-01 -2.0206025751806E+00
    51  5.0000000000000E-01 -1.9806543079534E+00
    52  5.1000000000000E-01 -1.9423796005358E+00
    53  5.2000000000000E-01 -1.9056745261357E+00
    54  5.3000000000000E-01 -1.8704425331686E+00
    55  5.4000000000000E-01 -1.8365938098565E+00
    56  5.5000000000000E-01 -1.8040447191824E+00
    57  5.6000000000000E-01 -1.7727172976433E+00
    58  5.7000000000000E-01 -1.7425388097465E+00
    59  5.8000000000000E-01 -1.7134413513326E+00
    60  5.9000000000000E-01 -1.6853614957309E+00
    61  6.0000000000000E-01 -1.6582399776193E+00
    62  6.1000000000000E-01 -1.6320214101196E+00
    63  6.2000000000000E-01 -1.6066540312607E+00
    64  6.3000000000000E-01 -1.5820894763675E+00
    65  6.4000000000000E-01 -1.5582825734066E+00
    66  6.5000000000000E-01 -1.5351911585211E+00
    67  6.6000000000000E-01 -1.5127759092945E+00
    68  6.7000000000000E-01 -1.4910001934135E+00
    69  6.8000000000000E-01 -1.4698299305358E+00
    70  6.9000000000000E-01 -1.4492334652860E+00
    71  7.0000000000000E-01 -1.4291814493464E+00
    72  7.1000000000000E-01 -1.4096467307172E+00
    73  7.2000000000000E-01 -1.3906042483068E+00
    74  7.3000000000000E-01 -1.3720309301041E+00
    75  7.4000000000000E-01 -1.3539055933456E+00
    76  7.5000000000000E-01 -1.3362088452501E+00
    77  7.6000000000000E-01 -1.3189229831103E+00
    78  7.7000000000000E-01 -1.3020318927592E+00
    79  7.8000000000000E-01 -1.2855209447152E+00
    80  7.9000000000000E-01 -1.2693768875905E+00
    81  8.0000000000000E-01 -1.2535877386437E+00
    82  8.1000000000000E-01 -1.2381426716749E+00
    83  8.2000000000000E-01 -1.2230319027389E+00
    84  8.3000000000000E-01 -1.2082465744113E+00
    85  8.4000000000000E-01 -1.1937786396187E+00
    86  8.5000000000000E-01 -1.1796207461696E+00
    87  8.6000000000000E-01 -1.1657661233493E+00
    88  8.7000000000000E-01 -1.1522084719677E+00
    89  8.8000000000000E-01 -1.1389418593338E+00
    90  8.9000000000000E-01 -1.1259606205845E+00
    91  9.0000000000000E-01 -1.1132592677482E+00
    92  9.1000000000000E-01 -1.1008324077751E+00
    93  9.2000000000000E-01 -1.0886746706214E+00
    94  9.3000000000000E-01 -1.0767806482484E+00
    95  9.4000000000000E-01 -1.0651448451607E+00
    96  9.5000000000000E-01 -1.0537616408526E+00
    97  9.6000000000000E-01 -1.0426252642425E+00
    98  9.7000000000000E-01 -1.0317297799061E+00
    99  9.8000000000000E-01 -1.0210690856298E+00
   100  9.9000000000000E-01 -1.0106369205743E+00
   101  1.0000000000000E+00 -1.0004268830754E+00
   102  1.0100000000000E+00 -9.9043245693524E-01
   103  1.0200000000000E+00 -9.8064704487303E-01
   104  1.0300000000000E+00 -9.7106400769099E-01
   105  1.0400000000000E+00 -9.6167670763293E-01
   106  1.0500000000000E+00 -9.5247855435794E-01
   107  1.0600000000000E+00 -9.4346305197746E-01
   108  1.0700000000000E+00 -9.3462384563706E-01
   109  1.0800000000000E+00 -9.2595476512515E-01
   110  1.0900000000000E+00 -9.1744984646269E-01
   111  1.1000000000000E+00 -9.0910339553973E-01
   112  1.1100000000000E+00 -9.0091006187190E-01
   113  1.1200000000000E+00 -8.9286479901115E-01
   114  1.1300000000000E+00 -8.8496289450581E-01
   115  1.1400000000000E+00 -8.7719997890235E-01
   116  1.1500000000000E+00 -8.6957209789939E-01
   117  1.1600000000000E+00 -8.6207573398516E-01
   118  1.1700000000000E+00 -8.5470751497460E-01
   119  1.1800000000000E+00 -8.4746418167907E-01
   120  1.1900000000000E+00 -8.4034258584104E-01
   121  1.2000000000000E+00 -8.3333968399631E-01
   122  1.2100000000000E+00 -8.2645253330881E-01
   123  1.2200000000000E+00 -8.1967828742937E-01
   124  1.2300000000000E+00 -8.1301419257605E-01
   125  1.2400000000000E+00 -8.0645758379490E-01
   126  1.2500000000000E+00 -8.0000588141299E-01
   127  1.2600000000000E+00 -7.9365658765162E-01
   128  1.2700000000000E+00 -7.8740728340065E-01
   129  1.2800000000000E+00 -7.8125562514922E-01
   130  1.2900000000000E+00 -7.7519934205201E-01
   131  1.3000000000000E+00 -7.6923623313629E-01
   132  1.3100000000000E+00 -7.6336416463505E-01
   133  1.3200000000000E+00 -7.5758106744009E-01
   134  1.3300000000000E+00 -7.5188493467251E-01
   135  1.3400000000000E+00 -7.4627381936034E-01
   136  1.3500000000000E+00 -7.4074583221908E-01
   137  1.3600000000000E+00 -7.3529913953232E-01
   138  1.3700000000000E+00 -7.2993196112139E-01
   139  1.3800000000000E+00 -7.2464256840878E-01
   140  1.3900000000000E+00 -7.1942928255840E-01
   141  1.4000000000000E+00 -7.1429047270251E-01
   142  1.4100000000000E+00 -7.0922455423780E-01
   143  1.4200000000000E+00 -7.0422998719819E-01
   144  1.4300000000000E+00 -6.9930527469351E-01
   145  1.4400000000000E+00 -6.9444896141420E-01
   146  1.4500000000000E+00 -6.8965963219632E-01
   147  1.4600000000000E+00 -6.8493591064828E-01
   148  1.4700000000000E+00 -6.8027645783070E-01
   149  1.4800000000000E+00 -6.7567997099221E-01
   150  1.4900000000000E+00 -6.7114518235431E-01
   151  1.5000000000000E+00 -6.6667085794612E-01
   152  1.5100000000000E+00 -6.6225579648412E-01
   153  1.5200000000000E+00 -6.5789882829837E-01
   154  1.5300000000000E+00 -6.5359881429790E-01
   155  1.5400000000000E+00 -6.4935464497818E-01
   156  1.5500000000000E+00 -6.4516523946823E-01
   157  1.5600000000000E+00 -6.4102954461005E-01
   158  1.5700000000000E+00 -6.3694653407932E-01
   159  1.5800000000000E+00 -6.3291520753316E-01
   160  1.5900000000000E+00 -6.2893458979543E-01
   161  1.6000000000000E+00 -6.2500373006894E-01
   162  1.6100000000000E+00 -6.2112170117914E-01
   163  1.6200000000000E+00 -6.1728759884406E-01
   164  1.6300000000000E+00 -6.1350054097314E-01
   165  1.6400000000000E+00 -6.0975966699037E-01
   166  1.6500000000000E+00 -6.0606413718132E-01
   167  1.6600000000000E+00 -6.0241313206678E-01
   168  1.6700000000000E+00 -5.9880585179478E-01
   169  1.6800000000000E+00 -5.9524151555808E-01
   170  1.6900000000000E+00 -5.9171936102959E-01
   171  1.7000000000000E+00 -5.8823864381992E-01
   172  1.7100000000000E+00 -5.8479863695162E-01
   173  1.7200000000000E+00 -5.8139863035408E-01
   174  1.7300000000000E+00 -5.7803793037464E-01
   175  1.7400000000000E+00 -5.7471585930631E-01
   176  1.7500000000000E+00 -5.7143175493275E-01
   177  1.7600000000000E+00 -5.6818497008814E-01
   178  1.7700000000000E+00 -5.6497487223162E-01
   179  1.7800000000000E+00 -5.6180084303690E-01
   180  1.7900000000000E+00 -5.5866227799513E-01
   181  1.8000000000000E+00 -5.5555858603096E-01
   182  1.8100000000000E+00 -5.5248918913132E-01
   183  1.8200000000000E+00 -5.4945352198710E-01
   184  1.8300000000000E+00 -5.4645103164552E-01
   185  1.8400000000000E+00 -5.4348117717449E-01
   186  1.8500000000000E+00 -5.4054342933804E-01
   187  1.8600000000000E+00 -5.3763727028148E-01
   188  1.8700000000000E+00 -5.3476219322725E-01
   189  1.8800000000000E+00 -5.3191770218051E-01
   190  1.8900000000000E+00 -5.2910331164362E-01
   191  1.9000000000000E+00 -5.2631854634006E-01
   192  1.9100000000000E+00 -5.2356294094680E-01
   193  1.9200000000000E+00 -5.2083603983510E-01
   194  1.9300000000000E+00 -5.1813739681937E-01
   195  1.9400000000000E+00 -5.1546657491387E-01
   196  1.9500000000000E+00 -5.1282314609675E-01
   197  1.9600000000000E+00 -5.1020669108128E-01
   198  1.9700000000000E+00 -5.0761679909432E-01
   199  1.9800000000000E+00 -5.0505306766138E-01
   200  1.9900000000000E+00 -5.0251510239784E-01
   201  2.0000000000000E+00 -5.0000251680694E-01
   202  2.0100000000000E+00 -4.9751493208355E-01
   203  2.0200000000000E+00 -4.9505197692369E-01
   204  2.0300000000000E+00 -4.9261328733981E-01
   205  2.0400000000000E+00 -4.9019850648147E-01
   206  2.0500000000000E+00 -4.8780728446161E-01
   207  2.0600000000000E+00 -4.8543927818575E-01
   208  2.0700000000000E+00 -4.8309415119050E-01
   209  2.0800000000000E+00 -4.8077157348484E-01
   210  2.0900000000000E+00 -4.7847122139144E-01
   211  2.1000000000000E+00 -4.7619277739818E-01
   212  2.1100000000000E+00 -4.7393593001261E-01
   213  2.1200000000000E+00 -4.7170037361978E-01
   214  2.1300000000000E+00 -4.6948580834409E-01
   215  2.1400000000000E+00 -4.6729193991516E-01
   216  2.1500000000000E+00 -4.6511847953759E-01
   217  2.1600000000000E+00 -4.6296514376417E-01
   218  2.1700000000000E+00 -4.6083165437264E-01
   219  2.1800000000000E+00 -4.5871773824583E-01
   220  2.1900000000000E+00 -4.5662312725519E-01
   221  2.2000000000000E+00 -4.5454755814736E-01
   222  2.2100000000000E+00 -4.5249077243384E-01
   223  2.2200000000000E+00 -4.5045251628375E-01
   224  2.2300000000000E+00 -4.4843254041932E-01
   225  2.2400000000000E+00 -4.4643060001432E-01
   226  2.2500000000000E+00 -4.4444645459509E-01
   227  2.2600000000000E+00 -4.4247986794431E-01
   228  2.2700000000000E+00 -4.4053060800715E-01
   229  2.2800000000000E+00 -4.3859844680007E-01
   230  2.2900000000000E+00 -4.3668316032190E-01
   231  2.3000000000000E+00 -4.3478452846724E-01