Ba    ONCVPSP-4.0.1  r_core=   2.94370   2.94370   2.97913   2.55001
     56.0000     10.0000      190817    zatom,zion,pspd
     8       2   3     4   600     0    pspcod,pspxc,lmax,lloc,mmax,r2well
  5.99000000  0.00000000  0.00000000    rchrg fchrg qchrg
     2     2     2     2     0    nproj
     1     1           extension_switch
   0                         3.6241430495962E+00  4.5275981644533E-01
     1  0.0000000000000E+00 -1.8378631949645E-12  5.5986604241554E-12
     2  1.0000000000000E-02  3.0799983919117E-02 -9.6221829232856E-03
     3  2.0000000000000E-02  6.1577831200426E-02 -1.9221298550608E-02
     4  3.0000000000000E-02  9.2311434287780E-02 -2.8774341843211E-02
     5  4.0000000000000E-02  1.2297874369274E-01 -3.8258431996764E-02
     6  5.0000000000000E-02  1.5355779678988E-01 -4.7650873860019E-02
     7  6.0000000000000E-02  1.8402674632712E-01 -5.6929218519161E-02
     8  7.0000000000000E-02  2.1436388855825E-01 -6.6071322776321E-02
     9  8.0000000000000E-02  2.4454769090660E-01 -7.5055407256345E-02
    10  9.0000000000000E-02  2.7455681907122E-01 -8.3860112882833E-02
    11  1.0000000000000E-01  3.0437016348938E-01 -9.2464555472715E-02
    12  1.1000000000000E-01  3.3396686507257E-01 -1.0084837820823E-01
    13  1.2000000000000E-01  3.6332634013656E-01 -1.0899180175582E-01
    14  1.3000000000000E-01  3.9242830444998E-01 -1.1687567181354E-01
    15  1.4000000000000E-01  4.2125279633028E-01 -1.2448150388150E-01
    16  1.5000000000000E-01  4.4978019872023E-01 -1.3179152506401E-01
    17  1.6000000000000E-01  4.7799126018354E-01 -1.3878871272724E-01
    18  1.7000000000000E-01  5.0586711476284E-01 -1.4545682985214E-01
    19  1.8000000000000E-01  5.3338930064924E-01 -1.5178045693915E-01
    20  1.9000000000000E-01  5.6053977761821E-01 -1.5774502033901E-01
    21  2.0000000000000E-01  5.8730094319235E-01 -1.6333681690185E-01
    22  2.1000000000000E-01  6.1365564749822E-01 -1.6854303485598E-01
    23  2.2000000000000E-01  6.3958720679009E-01 -1.7335177084669E-01
    24  2.3000000000000E-01  6.6507941562044E-01 -1.7775204308531E-01
    25  2.4000000000000E-01  6.9011655764331E-01 -1.8173380057852E-01
    26  2.5000000000000E-01  7.1468341504307E-01 -1.8528792842817E-01
    27  2.6000000000000E-01  7.3876527658813E-01 -1.8840624921205E-01
    28  2.7000000000000E-01  7.6234794431536E-01 -1.9108152047613E-01
    29  2.8000000000000E-01  7.8541773885780E-01 -1.9330742838896E-01
    30  2.9000000000000E-01  8.0796150343462E-01 -1.9507857762882E-01
    31  3.0000000000000E-01  8.2996660652870E-01 -1.9639047759352E-01
    32  3.1000000000000E-01  8.5142094328347E-01 -1.9723952504203E-01
    33  3.2000000000000E-01  8.7231293565665E-01 -1.9762298329571E-01
    34  3.3000000000000E-01  8.9263153137462E-01 -1.9753895814465E-01
    35  3.4000000000000E-01  9.1236620173648E-01 -1.9698637062204E-01
    36  3.5000000000000E-01  9.3150693832260E-01 -1.9596492682610E-01
    37  3.6000000000000E-01  9.5004424866722E-01 -1.9447508498408E-01
    38  3.7000000000000E-01  9.6796915095977E-01 -1.9251801996825E-01
    39  3.8000000000000E-01  9.8527316784367E-01 -1.9009558548653E-01
    40  3.9000000000000E-01  1.0019483193859E+00 -1.8721027418334E-01
    41  4.0000000000000E-01  1.0179871152937E+00 -1.8386517589735E-01
    42  4.1000000000000E-01  1.0333825464587E+00 -1.8006393433266E-01
    43  4.2000000000000E-01  1.0481280759115E+00 -1.7581070240870E-01
    44  4.3000000000000E-01  1.0622176292710E+00 -1.7111009656144E-01
    45  4.4000000000000E-01  1.0756455847768E+00 -1.6596715027441E-01
    46  4.5000000000000E-01  1.0884067629930E+00 -1.6038726712233E-01
    47  4.6000000000000E-01  1.1004964162729E+00 -1.5437617361330E-01
    48  4.7000000000000E-01  1.1119102180742E+00 -1.4793987211695E-01
    49  4.8000000000000E-01  1.1226442522169E+00 -1.4108459416566E-01
    50  4.9000000000000E-01  1.1326950021707E+00 -1.3381675441500E-01
    51  5.0000000000000E-01  1.1420593404634E+00 -1.2614290554547E-01
    52  5.1000000000000E-01  1.1507345182959E+00 -1.1806969438415E-01
    53  5.2000000000000E-01  1.1587181554492E+00 -1.0960381951789E-01
    54  5.3000000000000E-01  1.1660082305671E+00 -1.0075199066232E-01
    55  5.4000000000000E-01  1.1726030718936E+00 -9.1520890042255E-02
    56  5.5000000000000E-01  1.1785013485417E+00 -8.1917136027914E-02
    57  5.6000000000000E-01  1.1837020623669E+00 -7.1947249260244E-02
    58  5.7000000000000E-01  1.1882045405128E+00 -6.1617621484818E-02
    59  5.8000000000000E-01  1.1920084286929E+00 -5.0934487299813E-02
    60  5.9000000000000E-01  1.1951136852679E+00 -3.9903899007663E-02
    61  6.0000000000000E-01  1.1975205761696E+00 -2.8531704743169E-02
    62  6.1000000000000E-01  1.1992296707222E+00 -1.6823530033247E-02
    63  6.2000000000000E-01  1.2002418383978E+00 -4.7847629243137E-03
    64  6.3000000000000E-01  1.2005582465452E+00  7.5794572060552E-03
    65  6.4000000000000E-01  1.2001803591171E+00  2.0264247057286E-02
    66  6.5000000000000E-01  1.1991099364185E+00  3.3264982959045E-02
    67  6.6000000000000E-01  1.1973490358899E+00  4.6577300516471E-02
    68  6.7000000000000E-01  1.1949000139325E+00  6.0197090316777E-02
    69  6.8000000000000E-01  1.1917655287745E+00  7.4120489689141E-02
    70  6.9000000000000E-01  1.1879485443719E+00  8.8343870532748E-02
    71  7.0000000000000E-01  1.1834523353261E+00  1.0286382325096E-01
    72  7.1000000000000E-01  1.1782804927982E+00  1.1767713685264E-01
    73  7.2000000000000E-01  1.1724369313875E+00  1.3278077530468E-01
    74  7.3000000000000E-01  1.1659258969372E+00  1.4817185024263E-01
    75  7.4000000000000E-01  1.1587519752234E+00  1.6384759016894E-01
    76  7.5000000000000E-01  1.1509201014723E+00  1.7980530629004E-01
    77  7.6000000000000E-01  1.1424355706501E+00  1.9604235516538E-01
    78  7.7000000000000E-01  1.1333040484570E+00  2.1255609836227E-01
    79  7.8000000000000E-01  1.1235315829539E+00  2.2934385933018E-01
    80  7.9000000000000E-01  1.1131246167439E+00  2.4640287772769E-01
    81  8.0000000000000E-01  1.1020899996225E+00  2.6373026145316E-01
    82  8.1000000000000E-01  1.0904350016091E+00  2.8132293664744E-01
    83  8.2000000000000E-01  1.0781673262628E+00  2.9917759595254E-01
    84  8.3000000000000E-01  1.0652951241838E+00  3.1729064532521E-01
    85  8.4000000000000E-01  1.0518270065970E+00  3.3565814971681E-01
    86  8.5000000000000E-01  1.0377720589096E+00  3.5427577794355E-01
    87  8.6000000000000E-01  1.0231398541331E+00  3.7313874708036E-01
    88  8.7000000000000E-01  1.0079404660553E+00  3.9224176672100E-01
    89  8.8000000000000E-01  9.9218448204849E-01  4.1157898345337E-01
    90  8.9000000000000E-01  9.7588301539508E-01  4.3114392590459E-01
    91  9.0000000000000E-01  9.5904771701516E-01  4.5092945071362E-01
    92  9.1000000000000E-01  9.4169078647614E-01  4.7092768979049E-01
    93  9.2000000000000E-01  9.2382498216767E-01  4.9112999922183E-01
    94  9.3000000000000E-01  9.0546363052481E-01  5.1152691017933E-01
    95  9.4000000000000E-01  8.8662063418412E-01  5.3210808218446E-01
    96  9.5000000000000E-01  8.6731047895973E-01  5.5286225907669E-01
    97  9.6000000000000E-01  8.4754823952884E-01  5.7377722802498E-01
    98  9.7000000000000E-01  8.2734958372013E-01  5.9483978191241E-01
    99  9.8000000000000E-01  8.0673077530180E-01  6.1603568541308E-01
   100  9.9000000000000E-01  7.8570867517138E-01  6.3734964506649E-01
   101  1.0000000000000E+00  7.6430074085399E-01  6.5876528364086E-01
   102  1.0100000000000E+00  7.4252502422198E-01  6.8026511905898E-01
   103  1.0200000000000E+00  7.2040016735493E-01  7.0183054814327E-01
   104  1.0300000000000E+00  6.9794539646589E-01  7.2344183541615E-01
   105  1.0400000000000E+00  6.7518051382719E-01  7.4507810717118E-01
   106  1.0500000000000E+00  6.5212588763682E-01  7.6671735100748E-01
   107  1.0600000000000E+00  6.2880243977471E-01  7.8833642099644E-01
   108  1.0700000000000E+00  6.0523163140681E-01  8.0991104862441E-01
   109  1.0800000000000E+00  5.8143544640409E-01  8.3141585962910E-01
   110  1.0900000000000E+00  5.5743637255263E-01  8.5282439682037E-01
   111  1.1000000000000E+00  5.3325738054081E-01  8.7410914894815E-01
   112  1.1100000000000E+00  5.0892190071953E-01  8.9524158565144E-01
   113  1.1200000000000E+00  4.8445379764125E-01  9.1619219849350E-01
   114  1.1300000000000E+00  4.5987734239418E-01  9.3693054805840E-01
   115  1.1400000000000E+00  4.3521718275798E-01  9.5742531705429E-01
   116  1.1500000000000E+00  4.1049831121805E-01  9.7764436933853E-01
   117  1.1600000000000E+00  3.8574603088567E-01  9.9755481474993E-01
   118  1.1700000000000E+00  3.6098591938193E-01  1.0171230796032E+00
   119  1.1800000000000E+00  3.3624379075322E-01  1.0363149826706E+00
   120  1.1900000000000E+00  3.1154565549687E-01  1.0550958164483E+00
   121  1.2000000000000E+00  2.8691767878496E-01  1.0734304334722E+00
   122  1.2100000000000E+00  2.6238613698431E-01  1.0912833374261E+00
   123  1.2200000000000E+00  2.3797737258025E-01  1.1086187787516E+00
   124  1.2300000000000E+00  2.1371774762060E-01  1.1254008544475E+00
   125  1.2400000000000E+00  1.8963359580541E-01  1.1415936117191E+00
   126  1.2500000000000E+00  1.6575117335611E-01  1.1571611551160E+00
   127  1.2600000000000E+00  1.4209660880564E-01  1.1720677567721E+00
   128  1.2700000000000E+00  1.1869585185862E-01  1.1862779693435E+00
   129  1.2800000000000E+00  9.5574621477302E-02  1.1997567412184E+00
   130  1.2900000000000E+00  7.2758353355407E-02  1.2124695335582E+00
   131  1.3000000000000E+00  5.0272146947412E-02  1.2243824387112E+00
   132  1.3100000000000E+00  2.8140712225966E-02  1.2354622995274E+00
   133  1.3200000000000E+00  6.3883163443143E-03  1.2456768290929E+00
   134  1.3300000000000E+00 -1.4961269615868E-02  1.2549947303896E+00
   135  1.3400000000000E+00 -3.5884823627890E-02  1.2633858153832E+00
   136  1.3500000000000E+00 -5.6359725249423E-02  1.2708211230318E+00
   137  1.3600000000000E+00 -7.6364007511218E-02  1.2772730357108E+00
   138  1.3700000000000E+00 -9.5876407977944E-02  1.2827153935439E+00
   139  1.3800000000000E+00 -1.1487641879445E-01  1.2871236061352E+00
   140  1.3900000000000E+00 -1.3334433553155E-01  1.2904747612005E+00
   141  1.4000000000000E+00 -1.5126130464769E-01  1.2927477296027E+00
   142  1.4100000000000E+00 -1.6860936938522E-01  1.2939232663044E+00
   143  1.4200000000000E+00 -1.8537151392384E-01  1.2939841067635E+00
   144  1.4300000000000E+00 -2.0153170561786E-01  1.2929150583097E+00
   145  1.4400000000000E+00 -2.1707493514919E-01  1.2907030860559E+00
   146  1.4500000000000E+00 -2.3198725443373E-01  1.2873373929175E+00
   147  1.4600000000000E+00 -2.4625581212556E-01  1.2828094933308E+00
   148  1.4700000000000E+00 -2.5986888657047E-01  1.2771132802864E+00
   149  1.4800000000000E+00 -2.7281591606877E-01  1.2702450853142E+00
   150  1.4900000000000E+00 -2.8508752631555E-01  1.2622037310859E+00
   151  1.5000000000000E+00 -2.9667555489635E-01  1.2529905763272E+00
   152  1.5100000000000E+00 -3.0757307272580E-01  1.2426095527599E+00
   153  1.5200000000000E+00 -3.1777440232748E-01  1.2310671938280E+00
   154  1.5300000000000E+00 -3.2727513286423E-01  1.2183726549912E+00
   155  1.5400000000000E+00 -3.3607213183931E-01  1.2045377254044E+00
   156  1.5500000000000E+00 -3.4416355340135E-01  1.1895768308365E+00
   157  1.5600000000000E+00 -3.5154884319750E-01  1.1735070277154E+00
   158  1.5700000000000E+00 -3.5822873973236E-01  1.1563479882249E+00
   159  1.5800000000000E+00 -3.6420527220277E-01  1.1381219764148E+00
   160  1.5900000000000E+00 -3.6948175479179E-01  1.1188538153220E+00
   161  1.6000000000000E+00 -3.7406277741812E-01  1.0985708451403E+00
   162  1.6100000000000E+00 -3.7795419295077E-01  1.0773028725119E+00
   163  1.6200000000000E+00 -3.8116310091196E-01  1.0550821110527E+00
   164  1.6300000000000E+00 -3.8369782770432E-01  1.0319431132600E+00
   165  1.6400000000000E+00 -3.8556790341214E-01  1.0079226939896E+00
   166  1.6500000000000E+00 -3.8678403523881E-01  9.8305984572240E-01
   167  1.6600000000000E+00 -3.8735807765603E-01  9.5739564588064E-01
   168  1.6700000000000E+00 -3.8730299935245E-01  9.3097315648351E-01
   169  1.6800000000000E+00 -3.8663284708198E-01  9.0383731646939E-01
   170  1.6900000000000E+00 -3.8536270652370E-01  8.7603482704159E-01
   171  1.7000000000000E+00 -3.8350866027670E-01  8.4761403042593E-01
   172  1.7100000000000E+00 -3.8108774312426E-01  8.1862478245736E-01
   173  1.7200000000000E+00 -3.7811789471211E-01  7.8911831944040E-01
   174  1.7300000000000E+00 -3.7461790979517E-01  7.5914711975294E-01
   175  1.7400000000000E+00 -3.7060738621667E-01  7.2876476068698E-01
   176  1.7500000000000E+00 -3.6610667079177E-01  6.9802577104051E-01
   177  1.7600000000000E+00 -3.6113680327574E-01  6.6698547999414E-01
   178  1.7700000000000E+00 -3.5571945860369E-01  6.3569986282242E-01
   179  1.7800000000000E+00 -3.4987688759523E-01  6.0422538400412E-01
   180  1.7900000000000E+00 -3.4363185632273E-01  5.7261883830724E-01
   181  1.8000000000000E+00 -3.3700758434650E-01  5.4093719043384E-01
   182  1.8100000000000E+00 -3.3002768202403E-01  5.0923741381594E-01
   183  1.8200000000000E+00 -3.2271608710304E-01  4.7757632915766E-01
   184  1.8300000000000E+00 -3.1509700081025E-01  4.4601044331991E-01
   185  1.8400000000000E+00 -3.0719482364884E-01  4.1459578914200E-01
   186  1.8500000000000E+00 -2.9903409111740E-01  3.8338776679052E-01
   187  1.8600000000000E+00 -2.9063940956278E-01  3.5244098721835E-01
   188  1.8700000000000E+00 -2.8203539237733E-01  3.2180911830738E-01
   189  1.8800000000000E+00 -2.7324659674841E-01  2.9154473425568E-01
   190  1.8900000000000E+00 -2.6429746116464E-01  2.6169916875493E-01
   191  1.9000000000000E+00 -2.5521224387906E-01  2.3232237248669E-01
   192  1.9100000000000E+00 -2.4601496252392E-01  2.0346277544567E-01
   193  1.9200000000000E+00 -2.3672933506614E-01  1.7516715457625E-01
   194  1.9300000000000E+00 -2.2737872228519E-01  1.4748050718334E-01
   195  1.9400000000000E+00 -2.1798607194795E-01  1.2044593055260E-01
   196  1.9500000000000E+00 -2.0857386484649E-01  9.4104508185524E-02
   197  1.9600000000000E+00 -1.9916406285569E-01  6.8495203024783E-02
   198  1.9700000000000E+00 -1.8977805915813E-01  4.3654758012619E-02
   199  1.9800000000000E+00 -1.8043663077296E-01  1.9617604290319E-02
   200  1.9900000000000E+00 -1.7115989351522E-01 -3.5842226866515E-03
   201  2.0000000000000E+00 -1.6196725950013E-01 -2.5921158882641E-02
   202  2.0100000000000E+00 -1.5287739729529E-01 -4.7366179065665E-02
   203  2.0200000000000E+00 -1.4390819481161E-01 -6.7894855681305E-02
   204  2.0300000000000E+00 -1.3507672501118E-01 -8.7485409096103E-02
   205  2.0400000000000E+00 -1.2639921449707E-01 -1.0611874913076E-01
   206  2.0500000000000E+00 -1.1789101503801E-01 -1.2377850784181E-01
   207  2.0600000000000E+00 -1.0956657806651E-01 -1.4045106355317E-01
   208  2.0700000000000E+00 -1.0143943217644E-01 -1.5612555617842E-01
   209  2.0800000000000E+00 -9.3522163632578E-02 -1.7079389391482E-01
   210  2.0900000000000E+00 -8.5826399891141E-02 -1.8445075143034E-01
   211  2.1000000000000E+00 -7.8362796117389E-02 -1.9709355970421E-01
   212  2.1100000000000E+00 -7.1141024673571E-02 -2.0872248771811E-01
   213  2.1200000000000E+00 -6.4169767536794E-02 -2.1934041623593E-01
   214  2.1300000000000E+00 -5.7456711594788E-02 -2.2895290394305E-01
   215  2.1400000000000E+00 -5.1008546754660E-02 -2.3756814625306E-01
   216  2.1500000000000E+00 -4.4830966788397E-02 -2.4519692712160E-01
   217  2.1600000000000E+00 -3.8928672827513E-02 -2.5185256423885E-01
   218  2.1700000000000E+00 -3.3305379407709E-02 -2.5755084800377E-01
   219  2.1800000000000E+00 -2.7963822954938E-02 -2.6230997470857E-01
   220  2.1900000000000E+00 -2.2905772593632E-02 -2.6615047439005E-01
   221  2.2000000000000E+00 -1.8132043150342E-02 -2.6909513382405E-01
   222  2.2100000000000E+00 -1.3642510215632E-02 -2.7116891516509E-01
   223  2.2200000000000E+00 -9.4361271208417E-03 -2.7239887074874E-01
   224  2.2300000000000E+00 -5.5109436786590E-03 -2.7281405459149E-01
   225  2.2400000000000E+00 -1.8641265311094E-03 -2.7244543113521E-01
   226  2.2500000000000E+00  1.5080190577141E-03 -2.7132578179570E-01
   227  2.2600000000000E+00  4.6100261308555E-03 -2.6948960988203E-01
   228  2.2700000000000E+00  7.4472418600434E-03 -2.6697304445821E-01
   229  2.2800000000000E+00  1.0025802536825E-02 -2.6381374411690E-01
   230  2.2900000000000E+00  1.2352607239962E-02 -2.6005079870135E-01
   231  2.3000000000000E+00  1.4435292772099E-02 -2.5572463869472E-01
   232  2.3100000000000E+00  1.6282199252681E-02 -2.5087691210785E-01
   233  2.3200000000000E+00  1.7902371037681E-02 -2.4555049766066E-01
   234  2.3300000000000E+00  1.9305430829951E-02 -2.3978903959622E-01
   235  2.3400000000000E+00  2.0501386288977E-02 -2.3363623591614E-01
   236  2.3500000000000E+00  2.1500434897103E-02 -2.2713513750427E-01
   237  2.3600000000000E+00  2.2312913614922E-02 -2.2032800338839E-01
   238  2.3700000000000E+00  2.2949263899405E-02 -2.1325621727700E-01
   239  2.3800000000000E+00  2.3419984923065E-02 -2.0596015964082E-01
   240  2.3900000000000E+00  2.3735591777061E-02 -1.9847910037782E-01
   241  2.4000000000000E+00  2.3906575020159E-02 -1.9085109765648E-01
   242  2.4100000000000E+00  2.3943361548508E-02 -1.8311290273085E-01
   243  2.4200000000000E+00  2.3856277056049E-02 -1.7529987160735E-01
   244  2.4300000000000E+00  2.3655510205312E-02 -1.6744588386990E-01
   245  2.4400000000000E+00  2.3351078615342E-02 -1.5958326892373E-01
   246  2.4500000000000E+00  2.2952796765139E-02 -1.5174273988911E-01
   247  2.4600000000000E+00  2.2470245904400E-02 -1.4395333535264E-01
   248  2.4700000000000E+00  2.1912746045343E-02 -1.3624236912130E-01
   249  2.4800000000000E+00  2.1289330101013E-02 -1.2863538809612E-01
   250  2.4900000000000E+00  2.0608720231278E-02 -1.2115613836742E-01
   251  2.5000000000000E+00  1.9879306434727E-02 -1.1382653955514E-01
   252  2.5100000000000E+00  1.9109127418266E-02 -1.0666666739710E-01
   253  2.5200000000000E+00  1.8305853771878E-02 -9.9694744572306E-02
   254  2.5300000000000E+00  1.7476773452097E-02 -9.2927139666949E-02
   255  2.5400000000000E+00  1.6628779571394E-02 -8.6378374170091E-02
   256  2.5500000000000E+00  1.5768360487636E-02 -8.0061137375292E-02
   257  2.5600000000000E+00  1.4901592162925E-02 -7.3986308982873E-02
   258  2.5700000000000E+00  1.4034132755975E-02 -6.8162989181448E-02
   259  2.5800000000000E+00  1.3171219410854E-02 -6.2598535982205E-02
   260  2.5900000000000E+00  1.2317667177926E-02 -5.7298609492582E-02
   261  2.6000000000000E+00  1.1477870003529E-02 -5.2267222818975E-02
   262  2.6100000000000E+00  1.0655803719460E-02 -4.7506799269863E-02
   263  2.6200000000000E+00  9.8550309408448E-03 -4.3018235460295E-02
   264  2.6300000000000E+00  9.0787077845917E-03 -3.8800969930652E-02
   265  2.6400000000000E+00  8.3295923110293E-03 -3.4853056861933E-02
   266  2.6500000000000E+00  7.6100545761146E-03 -3.1171244424427E-02
   267  2.6600000000000E+00  6.9220881864672E-03 -2.7751057311557E-02
   268  2.6700000000000E+00  6.2673232362985E-03 -2.4586882970562E-02
   269  2.6800000000000E+00  5.6470404994547E-03 -2.1672061027326E-02
   270  2.6900000000000E+00  5.0621867528991E-03 -1.8998975409783E-02
   271  2.7000000000000E+00  4.5133910945266E-03 -1.6559148638459E-02
   272  2.7100000000000E+00  4.0009821219619E-03 -1.4343337766084E-02
   273  2.7200000000000E+00  3.5250058348030E-03 -1.2341631433211E-02
   274  2.7300000000000E+00  3.0852441195510E-03 -1.0543547507573E-02
   275  2.7400000000000E+00  2.6812337096501E-03 -8.9381308738889E-03
   276  2.7500000000000E+00  2.3122860564506E-03 -7.5140526398851E-03
   277  2.7600000000000E+00  1.9775014655957E-03 -6.2596900306385E-03
   278  2.7700000000000E+00  1.6758023532759E-03 -5.1632639385765E-03
   279  2.7800000000000E+00  1.4059378345605E-03 -4.2128855379184E-03
   280  2.7900000000000E+00  1.1665059459049E-03 -3.3966590657500E-03
   281  2.8000000000000E+00  9.5588227867916E-04 -2.7024839099883E-03
   282  2.8100000000000E+00  7.7203596919214E-04 -2.1175020641978E-03
   283  2.8200000000000E+00  6.1307010723777E-04 -1.6298093003125E-03
   284  2.8300000000000E+00  4.7739081250505E-04 -1.2290083635224E-03
   285  2.8400000000000E+00  3.6329403457742E-04 -9.0495343082385E-04
   286  2.8500000000000E+00  2.6897357055279E-04 -6.4779400133837E-04
   287  2.8600000000000E+00  1.9259306382535E-04 -4.4821167139773E-04
   288  2.8700000000000E+00  1.3227551176138E-04 -2.9740240261850E-04
   289  2.8800000000000E+00  8.6123126974926E-05 -1.8714953312533E-04
   290  2.8900000000000E+00  5.2225917835488E-05 -1.0985980257727E-04
   291  2.9000000000000E+00  2.8669767399000E-05 -5.8602532627094E-05
   292  2.9100000000000E+00  1.3557231822724E-05 -2.7142964589062E-05
   293  2.9200000000000E+00  4.9914734367494E-06 -9.9616091830309E-06
   294  2.9300000000000E+00  1.1244805875515E-06 -2.3457400179979E-06
   295  2.9400000000000E+00  6.2183271494423E-08 -1.6610009217691E-07
   296  2.9500000000000E+00 -1.6567410557081E-08  5.0081140747433E-08
   297  2.9600000000000E+00  1.5103572044099E-09  8.4251127500681E-10
   298  2.97  0. -0.
   299  2.98 -0.  0.
   300  2.99 -0.  0.
   301  3.00 -0.  0.
   302  3.01 -0.  0.
   303  3.02  0.  0.
   304  3.03  0.  0.
   305  3.04  0.  0.
   306  3.05  0.  0.
   307  3.06  0.  0.
   308  3.07  0.  0.
   309  3.08  0.  0.
   310  3.09  0.  0.
   311  3.10  0.  0.
   312  3.11  0.  0.
   313  3.12  0.  0.
   314  3.13  0.  0.
   315  3.14  0.  0.
   316  3.15  0.  0.
   317  3.16  0.  0.
   318  3.17  0.  0.
   319  3.18  0.  0.
   320  3.19  0.  0.
   321  3.20  0.  0.
   322  3.21  0.  0.
   323  3.22  0.  0.
   324  3.23  0.  0.
   325  3.24  0.  0.
   326  3.25  0.  0.
   327  3.26  0.  0.
   328  3.27  0.  0.
   329  3.28  0.  0.
   330  3.29  0.  0.
   331  3.30  0.  0.
   332  3.31  0.  0.
   333  3.32  0.  0.
   334  3.33  0.  0.
   335  3.34  0.  0.
   336  3.35  0.  0.
   337  3.36  0.  0.
   338  3.37  0.  0.
   339  3.38  0.  0.
   340  3.39  0.  0.
   341  3.40  0.  0.
   342  3.41  0.  0.
   343  3.42  0.  0.
   344  3.43  0.  0.
   345  3.44  0.  0.
   346  3.45  0.  0.
   347  3.46  0.  0.
   348  3.47  0.  0.
   349  3.48  0.  0.
   350  3.49  0.  0.
   351  3.50  0.  0.
   352  3.51  0.  0.
   353  3.52  0.  0.
   354  3.53  0.  0.
   355  3.54  0.  0.
   356  3.55  0.  0.
   357  3.56  0.  0.
   358  3.57  0.  0.
   359  3.58  0.  0.
   360  3.59  0.  0.
   361  3.60  0.  0.
   362  3.61  0.  0.
   363  3.62  0.  0.
   364  3.63  0.  0.
   365  3.64  0.  0.
   366  3.65  0.  0.
   367  3.66  0.  0.
   368  3.67  0.  0.
   369  3.68  0.  0.
   370  3.69  0.  0.
   371  3.70  0.  0.
   372  3.71  0.  0.
   373  3.72  0.  0.
   374  3.73  0.  0.
   375  3.74  0.  0.
   376  3.75  0.  0.
   377  3.76  0.  0.
   378  3.77  0.  0.
   379  3.78  0.  0.
   380  3.79  0.  0.
   381  3.80  0.  0.
   382  3.81  0.  0.
   383  3.82  0.  0.
   384  3.83  0.  0.
   385  3.84  0.  0.
   386  3.85  0.  0.
   387  3.86  0.  0.
   388  3.87  0.  0.
   389  3.88  0.  0.
   390  3.89  0.  0.
   391  3.90  0.  0.
   392  3.91  0.  0.
   393  3.92  0.  0.
   394  3.93  0.  0.
   395  3.94  0.  0.
   396  3.95  0.  0.
   397  3.96  0.  0.
   398  3.97  0.  0.
   399  3.98  0.  0.
   400  3.99  0.  0.
   401  4.00  0.  0.
   402  4.01  0.  0.
   403  4.02  0.  0.
   404  4.03  0.  0.
   405  4.04  0.  0.
   406  4.05  0.  0.
   407  4.06  0.  0.
   408  4.07  0.  0.
   409  4.08  0.  0.
   410  4.09  0.  0.
   411  4.10  0.  0.
   412  4.11  0.  0.
   413  4.12  0.  0.
   414  4.13  0.  0.
   415  4.14  0.  0.
   416  4.15  0.  0.
   417  4.16  0.  0.
   418  4.17  0.  0.
   419  4.18  0.  0.
   420  4.19  0.  0.
   421  4.20  0.  0.
   422  4.21  0.  0.
   423  4.22  0.  0.
   424  4.23  0.  0.
   425  4.24  0.  0.
   426  4.25  0.  0.
   427  4.26  0.  0.
   428  4.27  0.  0.
   429  4.28  0.  0.
   430  4.29  0.  0.
   431  4.30  0.  0.
   432  4.31  0.  0.
   433  4.32  0.  0.
   434  4.33  0.  0.
   435  4.34  0.  0.
   436  4.35  0.  0.
   437  4.36  0.  0.
   438  4.37  0.  0.
   439  4.38  0.  0.
   440  4.39  0.  0.
   441  4.40  0.  0.
   442  4.41  0.  0.
   443  4.42  0.  0.
   444  4.43  0.  0.
   445  4.44  0.  0.
   446  4.45  0.  0.
   447  4.46  0.  0.
   448  4.47  0.  0.
   449  4.48  0.  0.
   450  4.49  0.  0.
   451  4.50  0.  0.
   452  4.51  0.  0.
   453  4.52  0.  0.
   454  4.53  0.  0.
   455  4.54  0.  0.
   456  4.55  0.  0.
   457  4.56  0.  0.
   458  4.57  0.  0.
   459  4.58  0.  0.
   460  4.59  0.  0.
   461  4.60  0.  0.
   462  4.61  0.  0.
   463  4.62  0.  0.
   464  4.63  0.  0.
   465  4.64  0.  0.
   466  4.65  0.  0.
   467  4.66  0.  0.
   468  4.67  0.  0.
   469  4.68  0.  0.
   470  4.69  0.  0.
   471  4.70  0.  0.
   472  4.71  0.  0.
   473  4.72  0.  0.
   474  4.73  0.  0.
   475  4.74  0.  0.
   476  4.75  0.  0.
   477  4.76  0.  0.
   478  4.77  0.  0.
   479  4.78  0.  0.
   480  4.79  0.  0.
   481  4.80  0.  0.
   482  4.81  0.  0.
   483  4.82  0.  0.
   484  4.83  0.  0.
   485  4.84  0.  0.
   486  4.85  0.  0.
   487  4.86  0.  0.
   488  4.87  0.  0.
   489  4.88  0.  0.
   490  4.89  0.  0.
   491  4.90  0.  0.
   492  4.91  0.  0.
   493  4.92  0.  0.
   494  4.93  0.  0.
   495  4.94  0.  0.
   496  4.95  0.  0.
   497  4.96  0.  0.
   498  4.97  0.  0.
   499  4.98  0.  0.
   500  4.99  0.  0.
   501  5.00  0.  0.
   502  5.01  0.  0.
   503  5.02  0.  0.
   504  5.03  0.  0.
   505  5.04  0.  0.
   506  5.05  0.  0.
   507  5.06  0.  0.
   508  5.07  0.  0.
   509  5.08  0.  0.
   510  5.09  0.  0.
   511  5.10  0.  0.
   512  5.11  0.  0.
   513  5.12  0.  0.
   514  5.13  0.  0.
   515  5.14  0.  0.
   516  5.15  0.  0.
   517  5.16  0.  0.
   518  5.17  0.  0.
   519  5.18  0.  0.
   520  5.19  0.  0.
   521  5.20  0.  0.
   522  5.21  0.  0.
   523  5.22  0.  0.
   524  5.23  0.  0.
   525  5.24  0.  0.
   526  5.25  0.  0.
   527  5.26  0.  0.
   528  5.27  0.  0.
   529  5.28  0.  0.
   530  5.29  0.  0.
   531  5.30  0.  0.
   532  5.31  0.  0.
   533  5.32  0.  0.
   534  5.33  0.  0.
   535  5.34  0.  0.
   536  5.35  0.  0.
   537  5.36  0.  0.
   538  5.37  0.  0.
   539  5.38  0.  0.
   540  5.39  0.  0.
   541  5.40  0.  0.
   542  5.41  0.  0.
   543  5.42  0.  0.
   544  5.43  0.  0.
   545  5.44  0.  0.
   546  5.45  0.  0.
   547  5.46  0.  0.
   548  5.47  0.  0.
   549  5.48  0.  0.
   550  5.49  0.  0.
   551  5.50  0.  0.
   552  5.51  0.  0.
   553  5.52  0.  0.
   554  5.53  0.  0.
   555  5.54  0.  0.
   556  5.55  0.  0.
   557  5.56  0.  0.
   558  5.57  0.  0.
   559  5.58  0.  0.
   560  5.59  0.  0.
   561  5.60  0.  0.
   562  5.61  0.  0.
   563  5.62  0.  0.
   564  5.63  0.  0.
   565  5.64  0.  0.
   566  5.65  0.  0.
   567  5.66  0.  0.
   568  5.67  0.  0.
   569  5.68  0.  0.
   570  5.69  0.  0.
   571  5.70  0.  0.
   572  5.71  0.  0.
   573  5.72  0.  0.
   574  5.73  0.  0.
   575  5.74  0.  0.
   576  5.75  0.  0.
   577  5.76  0.  0.
   578  5.77  0.  0.
   579  5.78  0.  0.
   580  5.79  0.  0.
   581  5.80  0.  0.
   582  5.81  0.  0.
   583  5.82  0.  0.
   584  5.83  0.  0.
   585  5.84  0.  0.
   586  5.85  0.  0.
   587  5.86  0.  0.
   588  5.87  0.  0.
   589  5.88  0.  0.
   590  5.89  0.  0.
   591  5.90  0.  0.
   592  5.91  0.  0.
   593  5.92  0.  0.
   594  5.93  0.  0.
   595  5.94  0.  0.
   596  5.95  0.  0.
   597  5.96  0.  0.
   598  5.97  0.  0.
   599  5.98  0.  0.
   600  5.99  0.  0.
   1                         2.2344876720517E+00  3.2282690927519E-01
     1  0.0000000000000E+00  2.1633410340893E-11 -4.4562336459775E-11
     2  1.0000000000000E-02  4.7045144700165E-04 -2.2963421827199E-04
     3  2.0000000000000E-02  1.8809320443095E-03 -9.1756185154272E-04
     4  3.0000000000000E-02  4.2288230957957E-03 -2.0608622003603E-03
     5  4.0000000000000E-02  7.5097685465632E-03 -3.6546819597971E-03
     6  5.0000000000000E-02  1.1717687601574E-02 -5.6922569295500E-03
     7  6.0000000000000E-02  1.6844792313234E-02 -8.1649422462434E-03
     8  7.0000000000000E-02  2.2881610059980E-02 -1.1062250977289E-02
     9  8.0000000000000E-02  2.9817010816247E-02 -1.4371900871090E-02
    10  9.0000000000000E-02  3.7638239093223E-02 -1.8079869015324E-02
    11  1.0000000000000E-01  4.6330950409264E-02 -2.2170454113008E-02
    12  1.1000000000000E-01  5.5879252129232E-02 -2.6626346045909E-02
    13  1.2000000000000E-01  6.6265748493057E-02 -3.1428702356398E-02
    14  1.3000000000000E-01  7.7471589635991E-02 -3.6557231242511E-02
    15  1.4000000000000E-01  8.9476524386003E-02 -4.1990280626817E-02
    16  1.5000000000000E-01  1.0225895660810E-01 -4.7704932828121E-02
    17  1.6000000000000E-01  1.1579600485065E-01 -5.3677104335915E-02
    18  1.7000000000000E-01  1.3006356503551E-01 -5.9881650161263E-02
    19  1.8000000000000E-01  1.4503637592183E-01 -6.6292472214501E-02
    20  1.9000000000000E-01  1.6068808706275E-01 -7.2882631139877E-02
    21  2.0000000000000E-01  1.7699132896504E-01 -7.9624461020153E-02
    22  2.1000000000000E-01  1.9391778515431E-01 -8.6489686350405E-02
    23  2.2000000000000E-01  2.1143826584207E-01 -9.3449540669849E-02
    24  2.3000000000000E-01  2.2952278288669E-01 -1.0047488623347E-01
    25  2.4000000000000E-01  2.4814062573703E-01 -1.0753633410158E-01
    26  2.5000000000000E-01  2.6726043804663E-01 -1.1460436402558E-01
    27  2.6000000000000E-01  2.8685029464620E-01 -1.2164944351128E-01
    28  2.7000000000000E-01  3.0687777856447E-01 -1.2864214544821E-01
    29  2.8000000000000E-01  3.2731005779053E-01 -1.3555326370362E-01
    30  2.9000000000000E-01  3.4811396147616E-01 -1.4235392609352E-01
    31  3.0000000000000E-01  3.6925605528314E-01 -1.4901570415993E-01
    32  3.1000000000000E-01  3.9070271558860E-01 -1.5551071920407E-01
    33  3.2000000000000E-01  4.1242020227106E-01 -1.6181174404798E-01