Si    ONCVPSP-4.0.1  r_core=   2.38392   3.58059
     14.0000      4.0000      200312    zatom,zion,pspd
     8       2   1     4   600     0    pspcod,pspxc,lmax,lloc,mmax,r2well
  5.99000000  0.00000000  0.00000000    rchrg fchrg qchrg
     2     2     0     0     0    nproj
     1     1           extension_switch
   0                         5.4584262847077E+00  4.1942725969673E-01
     1  0.0000000000000E+00  9.1872620622269E-12 -3.2358157819878E-11
     2  1.0000000000000E-02  2.8528990966996E-02 -1.4400013962112E-02
     3  2.0000000000000E-02  5.7056443771523E-02 -2.8812839701773E-02
     4  3.0000000000000E-02  8.5580732742030E-02 -4.3251039563400E-02
     5  4.0000000000000E-02  1.1410005768376E-01 -5.7726678617008E-02
     6  5.0000000000000E-02  1.4261235785224E-01 -7.2251079992438E-02
     7  6.0000000000000E-02  1.7111522740234E-01 -8.6834584956444E-02
     8  7.0000000000000E-02  1.9960583279402E-01 -1.0148631927545E-01
     9  8.0000000000000E-02  2.2808083262660E-01 -1.1621396737443E-01
    10  9.0000000000000E-02  2.5653630036194E-01 -1.3102355576211E-01
    11  1.0000000000000E-01  2.8496765038337E-01 -1.4591924714451E-01
    12  1.1000000000000E-01  3.1336956782151E-01 -1.6090314659357E-01
    13  1.2000000000000E-01  3.4173594256003E-01 -1.7597512107474E-01
    14  1.3000000000000E-01  3.7005980781514E-01 -1.9113263356759E-01
    15  1.4000000000000E-01  3.9833328366022E-01 -2.0637059293717E-01
    16  1.5000000000000E-01  4.2654752584419E-01 -2.2168122063082E-01
    17  1.6000000000000E-01  4.5469268022650E-01 -2.3705393518625E-01
    18  1.7000000000000E-01  4.8275784312494E-01 -2.5247525544229E-01
    19  1.8000000000000E-01  5.1073102784431E-01 -2.6792872324379E-01
    20  1.9000000000000E-01  5.3859913762410E-01 -2.8339484632734E-01
    21  2.0000000000000E-01  5.6634794521248E-01 -2.9885106196631E-01
    22  2.1000000000000E-01  5.9396207924192E-01 -3.1427172183966E-01
    23  2.2000000000000E-01  6.2142501754863E-01 -3.2962809847456E-01
    24  2.3000000000000E-01  6.4871908754449E-01 -3.4488841349231E-01
    25  2.4000000000000E-01  6.7582547371527E-01 -3.6001788776733E-01
    26  2.5000000000000E-01  7.0272423228432E-01 -3.7497881348541E-01
    27  2.6000000000000E-01  7.2939431304535E-01 -3.8973064796431E-01
    28  2.7000000000000E-01  7.5581358833257E-01 -4.0423012897507E-01
    29  2.8000000000000E-01  7.8195888906077E-01 -4.1843141117880E-01
    30  2.9000000000000E-01  8.0780604773270E-01 -4.3228622317073E-01
    31  3.0000000000000E-01  8.3332994827589E-01 -4.4574404450109E-01
    32  3.1000000000000E-01  8.5850458253650E-01 -4.5875230192344E-01
    33  3.2000000000000E-01  8.8330311322401E-01 -4.7125658400413E-01
    34  3.3000000000000E-01  9.0769794306711E-01 -4.8320087311316E-01
    35  3.4000000000000E-01  9.3166078990935E-01 -4.9452779370747E-01
    36  3.5000000000000E-01  9.5516276744190E-01 -5.0517887571338E-01
    37  3.6000000000000E-01  9.7817447124103E-01 -5.1509483171493E-01
    38  3.7000000000000E-01  1.0006660697500E+00 -5.2421584656235E-01
    39  3.8000000000000E-01  1.0226073998178E+00 -5.3248187792736E-01
    40  3.9000000000000E-01  1.0439680663829E+00 -5.3983296625219E-01
    41  4.0000000000000E-01  1.0647175458667E+00 -5.4620955246710E-01
    42  4.1000000000000E-01  1.0848252928203E+00 -5.5155280178685E-01
    43  4.2000000000000E-01  1.1042608493497E+00 -5.5580493184067E-01
    44  4.3000000000000E-01  1.1229939568271E+00 -5.5890954334359E-01
    45  4.4000000000000E-01  1.1409946693824E+00 -5.6081195147955E-01
    46  4.5000000000000E-01  1.1582334686558E+00 -5.6145951613877E-01
    47  4.6000000000000E-01  1.1746813792847E+00 -5.6080196913387E-01
    48  4.7000000000000E-01  1.1903100845883E+00 -5.5879173651188E-01
    49  4.8000000000000E-01  1.2050920419121E+00 -5.5538425408151E-01
    50  4.9000000000000E-01  1.2190005970902E+00 -5.5053827428838E-01
    51  5.0000000000000E-01  1.2320100974846E+00 -5.4421616259444E-01
    52  5.1000000000000E-01  1.2440960030651E+00 -5.3638418155247E-01
    53  5.2000000000000E-01  1.2552349949993E+00 -5.2701276081035E-01
    54  5.3000000000000E-01  1.2654050812283E+00 -5.1607675133629E-01
    55  5.4000000000000E-01  1.2745856985203E+00 -5.0355566222013E-01
    56  5.5000000000000E-01  1.2827578105013E+00 -4.8943387848199E-01
    57  5.6000000000000E-01  1.2899040011860E+00 -4.7370085840455E-01
    58  5.7000000000000E-01  1.2960085635421E+00 -4.5635130899901E-01
    59  5.8000000000000E-01  1.3010575826516E+00 -4.3738533831836E-01
    60  5.9000000000000E-01  1.3050390130463E+00 -4.1680858344321E-01
    61  6.0000000000000E-01  1.3079427498287E+00 -3.9463231308456E-01
    62  6.1000000000000E-01  1.3097606932103E+00 -3.7087350387511E-01
    63  6.2000000000000E-01  1.3104868061310E+00 -3.4555488955366E-01
    64  6.3000000000000E-01  1.3101171646556E+00 -3.1870498238671E-01
    65  6.4000000000000E-01  1.3086500008715E+00 -2.9035806631615E-01
    66  6.5000000000000E-01  1.3060857380494E+00 -2.6055416147049E-01
    67  6.6000000000000E-01  1.3024270178618E+00 -2.2933895983043E-01
    68  6.7000000000000E-01  1.2976787194894E+00 -1.9676373199467E-01
    69  6.8000000000000E-01  1.2918479704832E+00 -1.6288520514949E-01
    70  6.9000000000000E-01  1.2849441492882E+00 -1.2776541250481E-01
    71  7.0000000000000E-01  1.2769788793691E+00 -9.1471514617547E-02
    72  7.1000000000000E-01  1.2679660149203E+00 -5.4075593182188E-02
    73  7.2000000000000E-01  1.2579216181787E+00 -1.5654418025068E-02
    74  7.3000000000000E-01  1.2468639283950E+00  2.3710811807227E-02
    75  7.4000000000000E-01  1.2348133225588E+00  6.3934751823196E-02
    76  7.5000000000000E-01  1.2217922680090E+00  1.0492821953615E-01
    77  7.6000000000000E-01  1.2078252670965E+00  1.4659852425793E-01
    78  7.7000000000000E-01  1.1929387941044E+00  1.8884981776847E-01
    79  7.8000000000000E-01  1.1771612246632E+00  2.3158346426406E-01
    80  7.9000000000000E-01  1.1605227579325E+00  2.7469842786416E-01
    81  8.0000000000000E-01  1.1430553318552E+00  3.1809167584131E-01
    82  8.1000000000000E-01  1.1247925318160E+00  3.6165859563269E-01
    83  8.2000000000000E-01  1.1057694930716E+00  4.0529342359448E-01
    84  8.3000000000000E-01  1.0860227973413E+00  4.4888968337121E-01
    85  8.4000000000000E-01  1.0655903639768E+00  4.9234063167555E-01
    86  8.5000000000000E-01  1.0445113361513E+00  5.3553970920533E-01
    87  8.6000000000000E-01  1.0228259625315E+00  5.7838099436721E-01
    88  8.7000000000000E-01  1.0005754749137E+00  6.2075965743074E-01
    89  8.8000000000000E-01  9.7780196232592E-01  6.6257241270022E-01
    90  8.9000000000000E-01  9.5454824211075E-01  7.0371796626729E-01
    91  9.0000000000000E-01  9.3085772851891E-01  7.4409745689423E-01
    92  9.1000000000000E-01  9.0677429935402E-01  7.8361488757413E-01
    93  9.2000000000000E-01  8.8234216121876E-01  8.2217754532303E-01
    94  9.3000000000000E-01  8.5760571391946E-01  8.5969640677699E-01
    95  9.4000000000000E-01  8.3260941459153E-01  8.9608652719591E-01
    96  9.5000000000000E-01  8.0739764211069E-01  9.3126741051436E-01
    97  9.6000000000000E-01  7.8201456235676E-01  9.6516335812748E-01
    98  9.7000000000000E-01  7.5650399489544E-01  9.9770379415650E-01
    99  9.8000000000000E-01  7.3090928164118E-01  1.0288235650037E+00
   100  9.9000000000000E-01  7.0527315805985E-01  1.0584632110789E+00
   101  1.0000000000000E+00  6.7963762746430E-01  1.0865692086599E+00
   102  1.0100000000000E+00  6.5404383894801E-01  1.1130941799350E+00
   103  1.0200000000000E+00  6.2853196949383E-01  1.1379970693661E+00
   104  1.0300000000000E+00  6.0314111078428E-01  1.1612432846113E+00
   105  1.0400000000000E+00  5.7790916122912E-01  1.1828048003409E+00
   106  1.0500000000000E+00  5.5287272371321E-01  1.2026602233897E+00
   107  1.0600000000000E+00  5.2806700955526E-01  1.2207948177919E+00
   108  1.0700000000000E+00  5.0352574915342E-01  1.2372004883535E+00
   109  1.0800000000000E+00  4.7928110977998E-01  1.2518757215259E+00
   110  1.0900000000000E+00  4.5536362097178E-01  1.2648254824544E+00
   111  1.1000000000000E+00  4.3180210794806E-01  1.2760610671807E+00
   112  1.1100000000000E+00  4.0862363347159E-01  1.2855999090881E+00
   113  1.1200000000000E+00  3.8585344855308E-01  1.2934653387812E+00
   114  1.1300000000000E+00  3.6351495238327E-01  1.2996862966917E+00
   115  1.1400000000000E+00  3.4162966186105E-01  1.3042969978039E+00
   116  1.1500000000000E+00  3.2021719107048E-01  1.3073365479827E+00
   117  1.1600000000000E+00  2.9929524104407E-01  1.3088485114802E+00
   118  1.1700000000000E+00  2.7887960013461E-01  1.3088804292763E+00
   119  1.1800000000000E+00  2.5898415530303E-01  1.3074832879928E+00
   120  1.1900000000000E+00  2.3962091461546E-01  1.3047109391861E+00
   121  1.2000000000000E+00  2.2080004122885E-01  1.3006194688957E+00
   122  1.2100000000000E+00  2.0252989913095E-01  1.2952665173807E+00
   123  1.2200000000000E+00  1.8481711088778E-01  1.2887105490314E+00
   124  1.2300000000000E+00  1.6766662763933E-01  1.2810100724889E+00
   125  1.2400000000000E+00  1.5108181157236E-01  1.2722228110427E+00
   126  1.2500000000000E+00  1.3506453107367E-01  1.2624048231462E+00
   127  1.2600000000000E+00  1.1961526916803E-01  1.2516095794983E+00
   128  1.2700000000000E+00  1.0473324424103E-01  1.2398869782091E+00
   129  1.2800000000000E+00  9.0416624221503E-02  1.2272836447903E+00
   130  1.2900000000000E+00  7.6662830778005E-02  1.2138454714935E+00
   131  1.3000000000000E+00  6.3468651458156E-02  1.1996183976550E+00
   132  1.3100000000000E+00  5.0830274414800E-02  1.1846482418568E+00
   133  1.3200000000000E+00  3.8743322448794E-02  1.1689805605977E+00
   134  1.3300000000000E+00  2.7202884817489E-02  1.1526605131229E+00
   135  1.3400000000000E+00  1.6203547040407E-02  1.1357327361581E+00
   136  1.3500000000000E+00  5.7394186961129E-03  1.1182412285879E+00
   137  1.3600000000000E+00 -4.1958407657464E-03  1.1002292461072E+00
   138  1.3700000000000E+00 -1.3608998148831E-02  1.0817392058292E+00
   139  1.3800000000000E+00 -2.2507224501326E-02  1.0628126007992E+00
   140  1.3900000000000E+00 -3.0898074886223E-02  1.0434899243244E+00
   141  1.4000000000000E+00 -3.8789469827795E-02  1.0238106039933E+00
   142  1.4100000000000E+00 -4.6189678318669E-02  1.0038129452204E+00
   143  1.4200000000000E+00 -5.3107302262017E-02  9.8353408411577E-01
   144  1.4300000000000E+00 -5.9551262215147E-02  9.6300994944025E-01
   145  1.4400000000000E+00 -6.5530784295058E-02  9.4227523337044E-01
   146  1.4500000000000E+00 -7.1055388102151E-02  9.2136337075821E-01
   147  1.4600000000000E+00 -7.6134875515681E-02  9.0030652653350E-01
   148  1.4700000000000E+00 -8.0779320213431E-02  8.7913559086087E-01
   149  1.4800000000000E+00 -8.4999057768241E-02  8.5788018163394E-01
   150  1.4900000000000E+00 -8.8804676174675E-02  8.3656865382975E-01
   151  1.5000000000000E+00 -9.2207006662757E-02  8.1522811526503E-01
   152  1.5100000000000E+00 -9.5217114657652E-02  7.9388444821256E-01
   153  1.5200000000000E+00 -9.7846290749389E-02  7.7256233634751E-01
   154  1.5300000000000E+00 -1.0010604154161E-01  7.5128529645732E-01
   155  1.5400000000000E+00 -1.0200808025440E-01  7.3007571433428E-01
   156  1.5500000000000E+00 -1.0356431696309E-01  7.0895488425610E-01
   157  1.5600000000000E+00 -1.0478684836262E-01  6.8794305145134E-01
   158  1.5700000000000E+00 -1.0568794695522E-01  6.6705945694211E-01
   159  1.5800000000000E+00 -1.0628004956841E-01  6.4632238415746E-01
   160  1.5900000000000E+00 -1.0657574511981E-01  6.2574920671661E-01
   161  1.6000000000000E+00 -1.0658776155574E-01  6.0535643679142E-01
   162  1.6100000000000E+00 -1.0632895190114E-01  5.8515977347358E-01
   163  1.6200000000000E+00 -1.0581227936997E-01  5.6517415059133E-01
   164  1.6300000000000E+00 -1.0505080149683E-01  5.4541378344605E-01
   165  1.6400000000000E+00 -1.0405765326280E-01  5.2589221396737E-01
   166  1.6500000000000E+00 -1.0284602920070E-01  5.0662235381929E-01
   167  1.6600000000000E+00 -1.0142916447797E-01  4.8761652502568E-01
   168  1.6700000000000E+00 -9.9820314967776E-02  4.6888649772462E-01
   169  1.6800000000000E+00 -9.8032736332092E-02  4.5044352470376E-01
   170  1.6900000000000E+00 -9.6079662152959E-02  4.3229837241461E-01
   171  1.7000000000000E+00 -9.3974281161083E-02  4.1446134821203E-01
   172  1.7100000000000E+00 -9.1729713623089E-02  3.9694232361447E-01
   173  1.7200000000000E+00 -8.9358986960926E-02  3.7975075343143E-01
   174  1.7300000000000E+00 -8.6875010688553E-02  3.6289569065671E-01
   175  1.7400000000000E+00 -8.4290550762181E-02  3.4638579707739E-01
   176  1.7500000000000E+00 -8.1618203450779E-02  3.3022934960081E-01
   177  1.7600000000000E+00 -7.8870368843464E-02  3.1443424235258E-01
   178  1.7700000000000E+00 -7.6059224119361E-02  2.9900798464905E-01
   179  1.7800000000000E+00 -7.3196696713688E-02  2.8395769499589E-01
   180  1.7900000000000E+00 -7.0294437520996E-02  2.6929009131101E-01
   181  1.8000000000000E+00 -6.7363794282775E-02  2.5501147761441E-01
   182  1.8100000000000E+00 -6.4415785311645E-02  2.4112772746864E-01
   183  1.8200000000000E+00 -6.1461073708422E-02  2.2764426449182E-01
   184  1.8300000000000E+00 -5.8509942231092E-02  2.1456604030028E-01
   185  1.8400000000000E+00 -5.5572268976367E-02  2.0189751026826E-01
   186  1.8500000000000E+00 -5.2657504034799E-02  1.8964260752006E-01
   187  1.8600000000000E+00 -4.9774647279510E-02  1.7780471559199E-01
   188  1.8700000000000E+00 -4.6932227446411E-02  1.6638664022039E-01
   189  1.8800000000000E+00 -4.4138282660280E-02  1.5539058072570E-01
   190  1.8900000000000E+00 -4.1400342556320E-02  1.4481810147175E-01
   191  1.9000000000000E+00 -3.8725412140847E-02  1.3467010388400E-01
   192  1.9100000000000E+00 -3.6119957527505E-02  1.2494679951014E-01
   193  1.9200000000000E+00 -3.3589893676993E-02  1.1564768460153E-01
   194  1.9300000000000E+00 -3.1140574258810E-02  1.0677151668434E-01
   195  1.9400000000000E+00 -2.8776783742938E-02  9.8316293575359E-02
   196  1.9500000000000E+00 -2.6502731817614E-02  9.0279235278264E-02
   197  1.9600000000000E+00 -2.4322050216937E-02  8.2656769173872E-02
   198  1.9700000000000E+00 -2.2237792028610E-02  7.5444518890950E-02
   199  1.9800000000000E+00 -2.0252433537994E-02  6.8637297213868E-02
   200  1.9900000000000E+00 -1.8367878649691E-02  6.2229103348488E-02
   201  2.0000000000000E+00 -1.6585465912271E-02  5.6213124829536E-02
   202  2.0100000000000E+00 -1.4905978156866E-02  5.0581744317047E-02
   203  2.0200000000000E+00 -1.3329654742780E-02  4.5326551481026E-02
   204  2.0300000000000E+00 -1.1856206387764E-02  4.0438360132262E-02
   205  2.0400000000000E+00 -1.0484832543746E-02  3.5907230709820E-02
   206  2.0500000000000E+00 -9.2142412622050E-03  3.1722498187676E-02
   207  2.0600000000000E+00 -8.0426714768888E-03  2.7872805414182E-02
   208  2.0700000000000E+00 -6.9679176160222E-03  2.4346141850730E-02
   209  2.0800000000000E+00 -5.9873564391538E-03  2.1129887623221E-02
   210  2.0900000000000E+00 -5.0979759794176E-03  1.8210862753999E-02
   211  2.1000000000000E+00 -4.2964064569080E-03  1.5575381392955E-02
   212  2.1100000000000E+00 -3.5789530143069E-03  1.3209310817806E-02
   213  2.1200000000000E+00 -2.9416301141748E-03  1.1098134933643E-02
   214  2.1300000000000E+00 -2.3801974228733E-03  9.2270219512557E-03
   215  2.1400000000000E+00 -1.8901969963475E-03  7.5808958884287E-03
   216  2.1500000000000E+00 -1.4669915720911E-03  6.1445114978780E-03
   217  2.1600000000000E+00 -1.1058037626089E-03  4.9025321904583E-03
   218  2.1700000000000E+00 -8.0175593836309E-04  3.8396104929396E-03
   219  2.1800000000000E+00 -5.4991058068878E-04  2.9404705471290E-03
   220  2.1900000000000E+00 -3.4531088090321E-04  2.1899921367391E-03
   221  2.2000000000000E+00 -1.8302135774826E-04  1.5732957061850E-03
   222  2.2100000000000E+00 -5.8168263173192E-05  1.0758278215959E-03
   223  2.2200000000000E+00  3.4020500839381E-05  6.8344643786476E-04
   224  2.2300000000000E+00  9.8175958108202E-05  3.8250575734401E-04
   225  2.2400000000000E+00  1.3874918276298E-04  1.5993993762940E-04
   226  2.2500000000000E+00  1.5997602429094E-04  3.3456423028529E-06
   227  2.2600000000000E+00  1.6584095518577E-04 -9.8953503341939E-05
   228  2.2700000000000E+00  1.5999416997997E-04 -1.5773165947522E-04
   229  2.2800000000000E+00  1.4564237071957E-04 -1.8260882086480E-04
   230  2.2900000000000E+00  1.2577152914372E-04 -1.8239006870676E-04
   231  2.3000000000000E+00  1.0307191873674E-04 -1.6501180590827E-04
   232  2.3100000000000E+00  7.9824168739413E-05 -1.3740173254196E-04
   233  2.3200000000000E+00  5.7893052937108E-05 -1.0541535203119E-04
   234  2.3300000000000E+00  3.8699124326499E-05 -7.3773299842073E-05
   235  2.3400000000000E+00  2.3198251045475E-05 -4.6005665115260E-05
   236  2.3500000000000E+00  1.1861108738523E-05 -2.4399278983415E-05
   237  2.3600000000000E+00  4.6670211877971E-06 -9.9693735065608E-06
   238  2.3700000000000E+00  1.0774074209855E-06 -2.4161338405840E-06
   239  2.3800000000000E+00  4.7442602924212E-08 -1.1501209865329E-07
   240  2.3900000000000E+00 -1.7504857413301E-08  6.1688737634132E-08
   241  2.4000000000000E+00  5.1292350741573E-09 -1.3598920295395E-08
   242  2.41  0. -0.
   243  2.42 -0.  0.
   244  2.43  0. -0.
   245  2.44  0. -0.
   246  2.45  0.  0.
   247  2.46  0.  0.
   248  2.47  0.  0.
   249  2.48  0.  0.
   250  2.49  0.  0.
   251  2.50  0.  0.
   252  2.51  0.  0.
   253  2.52  0.  0.
   254  2.53  0.  0.
   255  2.54  0.  0.
   256  2.55  0.  0.
   257  2.56  0.  0.
   258  2.57  0.  0.
   259  2.58  0.  0.
   260  2.59  0.  0.
   261  2.60  0.  0.
   262  2.61  0.  0.
   263  2.62  0.  0.
   264  2.63  0.  0.
   265  2.64  0.  0.
   266  2.65  0.  0.
   267  2.66  0.  0.
   268  2.67  0.  0.
   269  2.68  0.  0.
   270  2.69  0.  0.
   271  2.70  0.  0.
   272  2.71  0.  0.
   273  2.72  0.  0.
   274  2.73  0.  0.
   275  2.74  0.  0.
   276  2.75  0.  0.
   277  2.76  0.  0.
   278  2.77  0.  0.
   279  2.78  0.  0.
   280  2.79  0.  0.
   281  2.80  0.  0.
   282  2.81  0.  0.
   283  2.82  0.  0.
   284  2.83  0.  0.
   285  2.84  0.  0.
   286  2.85  0.  0.
   287  2.86  0.  0.
   288  2.87  0.  0.
   289  2.88  0.  0.
   290  2.89  0.  0.
   291  2.90  0.  0.
   292  2.91  0.  0.
   293  2.92  0.  0.
   294  2.93  0.  0.
   295  2.94  0.  0.
   296  2.95  0.  0.
   297  2.96  0.  0.
   298  2.97  0.  0.
   299  2.98  0.  0.
   300  2.99  0.  0.
   301  3.00  0.  0.
   302  3.01  0.  0.
   303  3.02  0.  0.
   304  3.03  0.  0.
   305  3.04  0.  0.
   306  3.05  0.  0.
   307  3.06  0.  0.
   308  3.07  0.  0.
   309  3.08  0.  0.
   310  3.09  0.  0.
   311  3.10  0.  0.
   312  3.11  0.  0.
   313  3.12  0.  0.
   314  3.13  0.  0.
   315  3.14  0.  0.
   316  3.15  0.  0.
   317  3.16  0.  0.
   318  3.17  0.  0.
   319  3.18  0.  0.
   320  3.19  0.  0.
   321  3.20  0.  0.
   322  3.21  0.  0.
   323  3.22  0.  0.
   324  3.23  0.  0.
   325  3.24  0.  0.
   326  3.25  0.  0.
   327  3.26  0.  0.
   328  3.27  0.  0.
   329  3.28  0.  0.
   330  3.29  0.  0.
   331  3.30  0.  0.
   332  3.31  0.  0.
   333  3.32  0.  0.
   334  3.33  0.  0.
   335  3.34  0.  0.
   336  3.35  0.  0.
   337  3.36  0.  0.
   338  3.37  0.  0.
   339  3.38  0.  0.
   340  3.39  0.  0.
   341  3.40  0.  0.
   342  3.41  0.  0.
   343  3.42  0.  0.
   344  3.43  0.  0.
   345  3.44  0.  0.
   346  3.45  0.  0.
   347  3.46  0.  0.
   348  3.47  0.  0.
   349  3.48  0.  0.
   350  3.49  0.  0.
   351  3.50  0.  0.
   352  3.51  0.  0.
   353  3.52  0.  0.
   354  3.53  0.  0.
   355  3.54  0.  0.
   356  3.55  0.  0.
   357  3.56  0.  0.
   358  3.57  0.  0.
   359  3.58  0.  0.
   360  3.59  0.  0.
   361  3.60  0.  0.
   362  3.61  0.  0.
   363  3.62  0.  0.
   364  3.63  0.  0.
   365  3.64  0.  0.
   366  3.65  0.  0.
   367  3.66  0.  0.
   368  3.67  0.  0.
   369  3.68  0.  0.
   370  3.69  0.  0.
   371  3.70  0.  0.
   372  3.71  0.  0.
   373  3.72  0.  0.
   374  3.73  0.  0.
   375  3.74  0.  0.
   376  3.75  0.  0.
   377  3.76  0.  0.
   378  3.77  0.  0.
   379  3.78  0.  0.
   380  3.79  0.  0.
   381  3.80  0.  0.
   382  3.81  0.  0.
   383  3.82  0.  0.
   384  3.83  0.  0.
   385  3.84  0.  0.
   386  3.85  0.  0.
   387  3.86  0.  0.
   388  3.87  0.  0.
   389  3.88  0.  0.
   390  3.89  0.  0.
   391  3.90  0.  0.
   392  3.91  0.  0.
   393  3.92  0.  0.
   394  3.93  0.  0.
   395  3.94  0.  0.
   396  3.95  0.  0.
   397  3.96  0.  0.
   398  3.97  0.  0.
   399  3.98  0.  0.
   400  3.99  0.  0.
   401  4.00  0.  0.
   402  4.01  0.  0.
   403  4.02  0.  0.
   404  4.03  0.  0.
   405  4.04  0.  0.
   406  4.05  0.  0.
   407  4.06  0.  0.
   408  4.07  0.  0.
   409  4.08  0.  0.
   410  4.09  0.  0.
   411  4.10  0.  0.
   412  4.11  0.  0.
   413  4.12  0.  0.
   414  4.13  0.  0.
   415  4.14  0.  0.
   416  4.15  0.  0.
   417  4.16  0.  0.
   418  4.17  0.  0.
   419  4.18  0.  0.
   420  4.19  0.  0.
   421  4.20  0.  0.
   422  4.21  0.  0.
   423  4.22  0.  0.
   424  4.23  0.  0.
   425  4.24  0.  0.
   426  4.25  0.  0.
   427  4.26  0.  0.
   428  4.27  0.  0.
   429  4.28  0.  0.
   430  4.29  0.  0.
   431  4.30  0.  0.
   432  4.31  0.  0.
   433  4.32  0.  0.
   434  4.33  0.  0.
   435  4.34  0.  0.
   436  4.35  0.  0.
   437  4.36  0.  0.
   438  4.37  0.  0.
   439  4.38  0.  0.
   440  4.39  0.  0.
   441  4.40  0.  0.
   442  4.41  0.  0.
   443  4.42  0.  0.
   444  4.43  0.  0.
   445  4.44  0.  0.
   446  4.45  0.  0.
   447  4.46  0.  0.
   448  4.47  0.  0.
   449  4.48  0.  0.
   450  4.49  0.  0.
   451  4.50  0.  0.
   452  4.51  0.  0.
   453  4.52  0.  0.
   454  4.53  0.  0.
   455  4.54  0.  0.
   456  4.55  0.  0.
   457  4.56  0.  0.
   458  4.57  0.  0.
   459  4.58  0.  0.
   460  4.59  0.  0.
   461  4.60  0.  0.
   462  4.61  0.  0.
   463  4.62  0.  0.
   464  4.63  0.  0.
   465  4.64  0.  0.
   466  4.65  0.  0.
   467  4.66  0.  0.
   468  4.67  0.  0.
   469  4.68  0.  0.
   470  4.69  0.  0.
   471  4.70  0.  0.
   472  4.71  0.  0.
   473  4.72  0.  0.
   474  4.73  0.  0.
   475  4.74  0.  0.
   476  4.75  0.  0.
   477  4.76  0.  0.
   478  4.77  0.  0.
   479  4.78  0.  0.
   480  4.79  0.  0.
   481  4.80  0.  0.
   482  4.81  0.  0.
   483  4.82  0.  0.
   484  4.83  0.  0.
   485  4.84  0.  0.
   486  4.85  0.  0.
   487  4.86  0.  0.
   488  4.87  0.  0.
   489  4.88  0.  0.
   490  4.89  0.  0.
   491  4.90  0.  0.
   492  4.91  0.  0.
   493  4.92  0.  0.
   494  4.93  0.  0.
   495  4.94  0.  0.
   496  4.95  0.  0.
   497  4.96  0.  0.
   498  4.97  0.  0.
   499  4.98  0.  0.
   500  4.99  0.  0.
   501  5.00  0.  0.
   502  5.01  0.  0.
   503  5.02  0.  0.
   504  5.03  0.  0.
   505  5.04  0.  0.
   506  5.05  0.  0.
   507  5.06  0.  0.
   508  5.07  0.  0.
   509  5.08  0.  0.
   510  5.09  0.  0.
   511  5.10  0.  0.
   512  5.11  0.  0.
   513  5.12  0.  0.
   514  5.13  0.  0.
   515  5.14  0.  0.
   516  5.15  0.  0.
   517  5.16  0.  0.
   518  5.17  0.  0.
   519  5.18  0.  0.
   520  5.19  0.  0.
   521  5.20  0.  0.
   522  5.21  0.  0.
   523  5.22  0.  0.
   524  5.23  0.  0.
   525  5.24  0.  0.
   526  5.25  0.  0.
   527  5.26  0.  0.
   528  5.27  0.  0.
   529  5.28  0.  0.
   530  5.29  0.  0.
   531  5.30  0.  0.
   532  5.31  0.  0.
   533  5.32  0.  0.
   534  5.33  0.  0.
   535  5.34  0.  0.
   536  5.35  0.  0.
   537  5.36  0.  0.
   538  5.37  0.  0.
   539  5.38  0.  0.
   540  5.39  0.  0.
   541  5.40  0.  0.
   542  5.41  0.  0.
   543  5.42  0.  0.
   544  5.43  0.  0.
   545  5.44  0.  0.
   546  5.45  0.  0.
   547  5.46  0.  0.
   548  5.47  0.  0.
   549  5.48  0.  0.
   550  5.49  0.  0.
   551  5.50  0.  0.
   552  5.51  0.  0.
   553  5.52  0.  0.
   554  5.53  0.  0.
   555  5.54  0.  0.
   556  5.55  0.  0.
   557  5.56  0.  0.
   558  5.57  0.  0.
   559  5.58  0.  0.
   560  5.59  0.  0.
   561  5.60  0.  0.
   562  5.61  0.  0.
   563  5.62  0.  0.
   564  5.63  0.  0.
   565  5.64  0.  0.
   566  5.65  0.  0.
   567  5.66  0.  0.
   568  5.67  0.  0.
   569  5.68  0.  0.
   570  5.69  0.  0.
   571  5.70  0.  0.
   572  5.71  0.  0.
   573  5.72  0.  0.
   574  5.73  0.  0.
   575  5.74  0.  0.
   576  5.75  0.  0.
   577  5.76  0.  0.
   578  5.77  0.  0.
   579  5.78  0.  0.
   580  5.79  0.  0.
   581  5.80  0.  0.
   582  5.81  0.  0.
   583  5.82  0.  0.
   584  5.83  0.  0.
   585  5.84  0.  0.
   586  5.85  0.  0.
   587  5.86  0.  0.
   588  5.87  0.  0.
   589  5.88  0.  0.
   590  5.89  0.  0.
   591  5.90  0.  0.
   592  5.91  0.  0.
   593  5.92  0.  0.
   594  5.93  0.  0.
   595  5.94  0.  0.
   596  5.95  0.  0.
   597  5.96  0.  0.
   598  5.97  0.  0.
   599  5.98  0.  0.
   600  5.99  0.  0.
   1                         2.2714073813697E+00  1.7988136313195E-01
     1  0.0000000000000E+00  1.2142793714975E-11 -3.2483710166176E-11
     2  1.0000000000000E-02  6.3236452120694E-04 -5.6633708667910E-04
     3  2.0000000000000E-02  2.5281738949382E-03 -2.2633574353492E-03
     4  3.0000000000000E-02  5.6835783655451E-03 -5.0850943625657E-03
     5  4.0000000000000E-02  1.0092171047537E-02 -9.0216235484327E-03
     6  5.0000000000000E-02  1.5745001964792E-02 -1.4059093206877E-02
     7  6.0000000000000E-02  2.2630597662187E-02 -2.0179766207504E-02
     8  7.0000000000000E-02  3.0734986346446E-02 -2.7362074032533E-02
     9  8.0000000000000E-02  4.0041728500855E-02 -3.5580682419786E-02
    10  9.0000000000000E-02  5.0531952906369E-02 -4.4806568510003E-02
    11  1.0000000000000E-01  6.2184397989700E-02 -5.5007109284791E-02
    12  1.1000000000000E-01  7.4975458407178E-02 -6.6146181049834E-02
    13  1.2000000000000E-01  8.8879236761524E-02 -7.8184269686836E-02
    14  1.3000000000000E-01  1.0386760033730E-01 -9.1078591367289E-02
    15  1.4000000000000E-01  1.1991024272951E-01 -1.0478322339115E-01
    16  1.5000000000000E-01  1.3697475022901E-01 -1.1924924478466E-01
    17  1.6000000000000E-01  1.5502667281755E-01 -1.3442488626291E-01
    18  1.7000000000000E-01  1.7402959961489E-01 -1.5025568913582E-01
    19  1.8000000000000E-01  1.9394523861053E-01 -1.6668467270905E-01
    20  1.9000000000000E-01  2.1473350050254E-01 -1.8365250970678E-01
    21  2.0000000000000E-01  2.3635258645679E-01 -2.0109770921792E-01
    22  2.1000000000000E-01  2.5875907959070E-01 -2.1895680664486E-01
    23  2.2000000000000E-01  2.8190803997720E-01 -2.3716456011121E-01
    24  2.3000000000000E-01  3.0575310295604E-01 -2.5565415276461E-01
    25  2.4000000000000E-01  3.3024658053202E-01 -2.7435740039060E-01
    26  2.5000000000000E-01  3.5533956563232E-01 -2.9320496373620E-01
    27  2.6000000000000E-01  3.8098203898810E-01 -3.1212656492416E-01
    28  2.7000000000000E-01  4.0712297839925E-01 -3.3105120732437E-01
    29  2.8000000000000E-01  4.3371047013511E-01 -3.4990739823471E-01
    30  2.9000000000000E-01  4.6069182221879E-01 -3.6862337371185E-01
    31  3.0000000000000E-01  4.8801367933742E-01 -3.8712732488142E-01
    32  3.1000000000000E-01  5.1562213911693E-01 -4.0534762504875E-01
    33  3.2000000000000E-01  5.4346286949537E-01 -4.2321305692360E-01
    34  3.3000000000000E-01  5.7148122692636E-01 -4.4065303926750E-01
    35  3.4000000000000E-01  5.9962237514087E-01 -4.5759785226796E-01
    36  3.5000000000000E-01  6.2783140419389E-01 -4.7397886094268E-01
    37  3.6000000000000E-01  6.5605344952089E-01 -4.8972873587649E-01
    38  3.7000000000000E-01  6.8423381072808E-01 -5.0478167059569E-01
    39  3.8000000000000E-01  7.1231806984010E-01 -5.1907359488838E-01
    40  3.9000000000000E-01  7.4025220872919E-01 -5.3254238338497E-01
    41  4.0000000000000E-01  7.6798272545081E-01 -5.4512805872069E-01
    42  4.1000000000000E-01  7.9545674921199E-01 -5.5677298861154E-01
    43  4.2000000000000E-01  8.2262215370117E-01 -5.6742207618656E-01
    44  4.3000000000000E-01  8.4942766851083E-01 -5.7702294293281E-01
    45  4.4000000000000E-01  8.7582298838756E-01 -5.8552610362504E-01
    46  4.5000000000000E-01  9.0175888004843E-01 -5.9288513262907E-01
    47  4.6000000000000E-01  9.2718728630697E-01 -5.9905682098748E-01
    48  4.7000000000000E-01  9.5206142725728E-01 -6.0400132371751E-01
    49  4.8000000000000E-01  9.7633589827069E-01 -6.0768229677399E-01
    50  4.9000000000000E-01  9.9996676456584E-01 -6.1006702315543E-01
    51  5.0000000000000E-01  1.0229116521198E+00 -6.1112652765819E-01
    52  5.1000000000000E-01  1.0451298346960E+00 -6.1083567981234E-01
    53  5.2000000000000E-01  1.0665823167721E+00 -6.0917328456373E-01
    54  5.3000000000000E-01  1.0872319121603E+00 -6.0612216029869E-01
    55  5.4000000000000E-01  1.1070433181218E+00 -6.0166920384190E-01
    56  5.5000000000000E-01  1.1259831847862E+00 -5.9580544209414E-01
    57  5.6000000000000E-01  1.1440201796981E+00 -5.8852607001321E-01
    58  5.7000000000000E-01  1.1611250473231E+00 -5.7983047468076E-01
    59  5.8000000000000E-01  1.1772706633562E+00 -5.6972224523790E-01
    60  5.9000000000000E-01  1.1924320836896E+00 -5.5820916851428E-01
    61  6.0000000000000E-01  1.2065865879057E+00 -5.4530321021859E-01
    62  6.1000000000000E-01  1.2197137171775E+00 -5.3102048160252E-01
    63  6.2000000000000E-01  1.2317953064672E+00 -5.1538119155649E-01
    64  6.3000000000000E-01  1.2428155109329E+00 -4.9840958414149E-01
    65  6.4000000000000E-01  1.2527608264598E+00 -4.8013386160963E-01
    66  6.5000000000000E-01  1.2616201042542E+00 -4.6058609301462E-01
    67  6.6000000000000E-01  1.2693845594461E+00 -4.3980210856291E-01
    68  6.7000000000000E-01  1.2760477736658E+00 -4.1782137990654E-01
    69  6.8000000000000E-01  1.2816056915712E+00 -3.9468688662988E-01
    70  6.9000000000000E-01  1.2860566113205E+00 -3.7044496923378E-01
    71  7.0000000000000E-01  1.2894011689982E+00 -3.4514516897273E-01
    72  7.1000000000000E-01  1.2916423170187E+00 -3.1884005495298E-01
    73  7.2000000000000E-01  1.2927852965474E+00 -2.9158503895204E-01