:MDSTEP: 30
:R(Bohr):
  3.6120769897E-01   3.9317085167E-01   2.2867950980E-01
  3.8877728998E+00   1.5292220902E+01   4.0899701582E+00
  7.9696114472E+00   1.5135939674E+01   1.1097530692E-01
  1.1340682528E+01   1.5296028161E+01   3.6197149122E+00
  1.4993872519E-01   7.8947833331E+00   1.5301177253E+01
  3.7258402024E+00   7.8911692518E+00   3.7988950316E+00
  7.2637456045E+00   7.3964699750E+00   1.5150052913E-01
  1.1504919160E+01   7.7623127682E+00   4.0247713665E+00
  5.6082198546E-01   1.5120364182E+01   7.7222062190E+00
  3.6330380446E+00   3.2134592392E-02   1.1200392685E+01
  7.6769658828E+00   4.9152500503E-02   7.7898526685E+00
  1.1558111670E+01   1.5125284029E+01   1.1727978355E+01
  2.9069358211E-01   7.6817226886E+00   7.8612199041E+00
  4.2171723953E+00   7.8648785205E+00   1.1457650079E+01
  7.3034647061E+00   7.9858402672E+00   7.5154678782E+00
  1.1506356288E+01   7.2480914413E+00   1.1463274360E+01
  9.2351350990E-02   3.9220706584E+00   3.9277178144E+00
  3.7104661706E+00   3.8592521142E+00   1.0696516851E-02
  7.8256576260E+00   3.6238907533E+00   3.4063802372E+00
  1.1344321889E+01   3.8024412073E+00   1.5164036487E+01
  3.3509794581E-01   1.1399163620E+01   3.9089049236E+00
  3.6067147244E+00   1.1538774284E+01   4.9390855581E-01
  7.8238447845E+00   1.1670810029E+01   3.8375755438E+00
  1.1017574921E+01   1.1480651023E+01   7.5921931343E-02
  1.4248082818E-01   3.6977067482E+00   1.1213275946E+01
  3.8086687480E+00   3.6877017157E+00   7.9525271672E+00
  7.9090209069E+00   3.7600974033E+00   1.1512603725E+01
  1.1338447542E+01   3.9571005515E+00   7.8096128199E+00
  3.0199738312E-01   1.1500733191E+01   1.1483221375E+01
  3.6777605257E+00   1.1218705341E+01   7.8193731285E+00
  7.8382874678E+00   1.1721475531E+01   1.1683617103E+01
  1.1602978167E+01   1.1508310339E+01   7.8150444651E+00
:V(Bohr/atu):
 -9.1529388369E-05   4.9937895022E-04   3.0227568680E-04
  1.4522732637E-04  -3.5091176190E-05   3.1482675405E-04
  3.2913872033E-04  -2.2984177783E-04  -3.0647417203E-04
 -1.5203444819E-04  -4.2547139390E-05  -2.3112073250E-04
  1.9470432371E-04   2.7192298691E-04  -3.3206997879E-05
 -1.6096894699E-04   3.0958107476E-04  -3.4857064423E-05
 -4.7128991859E-04  -3.3172117415E-04   2.1219609575E-04
  1.3526893442E-05   1.3517967390E-04   2.4772134530E-04
  6.2379064867E-05  -2.6928657145E-04   3.4942101255E-05
 -1.8391317213E-04   3.3170015120E-05  -3.0312471259E-04
  3.3464241271E-05   6.2943162925E-05  -2.3647055374E-04
  1.2554901624E-04  -2.5830542977E-04   3.1200071857E-04
  3.7935707751E-04   3.9473550246E-05   2.7117899474E-04
  4.7667016416E-04   2.3700699101E-04  -4.3290006885E-05
 -4.3148896368E-04   3.9986709812E-04  -1.9313325110E-04
  1.2646696361E-06  -5.6406220843E-04  -2.5664324187E-05
  1.6808253647E-04   1.0601069167E-04   1.1870001333E-04
 -1.9063493691E-04   4.1476732747E-05   8.9350946697E-05
  2.4116162714E-04  -2.9142460124E-04  -6.5864933786E-04
 -2.9741723197E-04   2.0470500794E-05  -2.0988204788E-04
  1.6507633544E-04  -1.3971668409E-04   1.0017644346E-04
 -3.1150650482E-04   5.8485245470E-05   7.2848822450E-05
  2.5558564490E-04   2.2920129072E-04  -1.0497049798E-04
 -7.7590596399E-04   5.0854361930E-06   1.5741260180E-04
  2.1046518603E-04  -1.5736582854E-04  -4.4483553893E-04
 -9.3041027145E-05  -1.9373532209E-04   4.6185996582E-04
  4.1674167033E-04  -8.0574459774E-05  -3.9934246216E-06
 -2.2054761070E-04   1.5443480548E-04   2.5103991351E-04
  6.2898520017E-05   3.2833790569E-05  -1.0545438385E-04
 -3.5290926518E-04  -3.5722882203E-04  -4.7319045606E-04
  3.5427447074E-04   3.0575718755E-04   1.8512657564E-04
  1.0823043398E-04   1.8745804259E-05   2.8796819961E-04
:NPT_NP_QMASS: 500
:NPT_NP_BMASS: 0.1
:NPT_NP_Sv: 6.90592967649367e-05
:NPT_NP_Pm: 0.515023200248996 0.515023200248996 0.515023200248996
:NPT_NP_S: 1.03446317630513
:NPT_NP_range_x_velo: 0.000740274731460232
:NPT_NP_range_y_velo: 0.000740274731460232
:NPT_NP_range_z_velo: 0.000740274731460232
:LATVEC_SCALE: 15.3240291435853 15.3240291435853 15.3240291435853
:TTHRMI(K): 1120
:TARGET_PRESSURE: 0 GPa
:NPT_NP_ini_Hamiltonian: -103.68207963937
:TEL(K): 1120
:TIO(K): 1122.49944988328
