:MDSTEP: 10
:R(Bohr):
  3.9374923939E-01   1.2476514713E-01   7.0790375480E-02
  3.7616382742E+00   1.5004738727E+01   3.8374093567E+00
  7.6118621717E+00   1.4956073230E+01   2.4721318245E-01
  1.1208565036E+01   1.5008157872E+01   3.6817979008E+00
  4.6077580167E-02   7.5858493503E+00   1.5010127353E+01
  3.7238362672E+00   7.5803873276E+00   3.7428283036E+00
  7.3774684233E+00   7.4236965476E+00   4.4117588844E-02
  1.1267390434E+01   7.5405856080E+00   3.8167774195E+00
  4.6782952052E-01   1.4952619647E+01   7.5312273718E+00
  3.6821366697E+00   9.1104186508E-03   1.1161643908E+01
  7.5107254777E+00   1.6063829593E-02   7.7559809008E+00
  1.1277956769E+01   1.4953184247E+01   1.1334057277E+01
  8.9198984074E-02   7.5129734320E+00   7.5694741264E+00
  3.8796831794E+00   7.5765229270E+00   1.1252168398E+01
  7.3927716806E+00   7.6129361504E+00   7.4605148263E+00
  1.1270077779E+01   7.3823745210E+00   1.1251942381E+01
  2.4729881603E-02   3.7851173345E+00   3.7853151848E+00
  3.7200926428E+00   3.7621137701E+00   1.5007746160E+01
  7.5535974439E+00   3.6904515835E+00   3.6357878280E+00
  1.1229141963E+01   3.7388367495E+00   1.4967551935E+01
  2.9179643125E-01   1.1234699058E+01   3.7820074113E+00
  3.6882406243E+00   1.1278303351E+01   4.8209078233E-01
  7.5499121516E+00   1.1318917930E+01   3.7748078201E+00
  1.1137021360E+01   1.1254455581E+01   1.2269334259E-02
  4.0763622581E-02   3.7103353870E+00   1.1184909954E+01
  3.7555997499E+00   3.7093651701E+00   7.5845517943E+00
  7.5727272459E+00   3.7297733731E+00   1.1273947783E+01
  1.1216914555E+01   3.7947935340E+00   7.5495551665E+00
  2.8830470430E-01   1.1262944778E+01   1.1274444737E+01
  3.7258803758E+00   1.1178361906E+01   7.8970130513E+00
  7.5450072054E+00   1.1334254059E+01   1.1334699312E+01
  1.1305129387E+01   1.1266791370E+01   7.5413925289E+00
:V(Bohr/atu):
 -4.2895035558E-05   5.5573606822E-04   3.1591492945E-04
  4.5140015844E-05  -5.0035005341E-05   3.6909639775E-04
  4.5823001698E-04  -2.6777499422E-04  -2.4366483450E-04
 -2.3549038587E-04  -3.6181885468E-05  -3.1568379755E-04
  2.0823654033E-04   3.4001450281E-04  -3.0477060441E-05
 -1.3793813401E-04   3.1970360889E-04  -5.1118763411E-05
 -5.7923938387E-04  -3.7758989393E-04   2.0279729012E-04
  1.9160684031E-05   1.3901854658E-04   2.7647003685E-04
  2.8013928656E-04  -2.8349578462E-04   9.9596693311E-05
 -3.1083633823E-04   4.4234246722E-05  -4.4466080735E-04
  1.3208616759E-05   7.2177896555E-05  -2.3930172321E-04
  7.2508423540E-05  -2.7926132948E-04   3.2372212343E-04
  4.0226672680E-04   2.1200253423E-05   2.7311403399E-04
  5.5372068521E-04   2.9869704645E-04  -5.0698967193E-05
 -5.1523935993E-04   4.6170304635E-04  -2.0772807612E-04
  2.9285571935E-05  -5.6825445949E-04  -4.6374232179E-05
  1.0923334153E-04   1.3456684299E-04   1.4133188635E-04
 -1.5390847038E-04   3.6265802071E-05  -2.0849349918E-05
  2.1243350797E-04  -2.8390493569E-04  -5.4666822219E-04
 -1.6323315523E-04  -6.2456352073E-05  -2.2608939854E-04
 -9.8907014497E-06  -1.2639486671E-04   1.0518099803E-04
 -3.0738824776E-04   6.5791969877E-05  -5.4911445526E-05
  2.0591001812E-04   2.5005491942E-04   5.2983689912E-05
 -5.9504510264E-04  -2.9706114572E-05   8.5021076109E-05
  1.8295539100E-04  -1.9315708666E-04  -3.5371072668E-04
 -2.1934600995E-06  -1.9974034520E-04   3.6258140471E-04
  3.0300939884E-04  -1.0632898118E-04   4.1313066466E-05
 -2.0731340306E-04   1.8118466034E-04   1.8077673308E-04
 -3.2229229169E-05   2.0295237009E-06   2.2352421190E-05
 -1.5451160847E-04  -3.8090814652E-04  -4.8138742320E-04
  1.9282994740E-04   3.1841836778E-04   2.8916235008E-04
  1.6930939410E-04   1.9711755985E-05   1.8098582980E-04
:NPT_NP_QMASS: 500
:NPT_NP_BMASS: 0.1
:NPT_NP_Sv: 4.01671508293205e-05
:NPT_NP_Pm: 0.0898969223218967 0.0898969223218967 0.0898969223218967
:NPT_NP_S: 1.00515797541336
:NPT_NP_range_x_velo: 0.000133418036662721
:NPT_NP_range_y_velo: 0.000133418036662721
:NPT_NP_range_z_velo: 0.000133418036662721
:LATVEC_SCALE: 15.0168278394275 15.0168278394275 15.0168278394275
:TARGET_PRESSURE: 0 GPa
:NPT_NP_ini_Hamiltonian: -96.087060292432
:TEL(K): 1120
:TIO(K): 1120.14835092495
