Si   ONCVPSP-2.1.1   r_core=    2.40480 3.56481
    14.0000   4.0000   150415   zatom,zion,pspd
    8   11   1   4   600   0   pspcod,pspxc,lmax,lloc,mmax,r2well
    5.99000000   0.00000000   0.00000000   rchrg fchrg qchrg
    2   2   0   0   0   nproj
    1   1   extension_switch
       0                         6.8029245250000E+00  4.3978672958500E-01
     1  0.0000000000000E+00  0.0000000000000E+00  0.0000000000000E+00
     2  1.0000000000000E-02 -2.8221815062000E-02 -2.2617493275000E-02
     3  2.0000000000000E-02 -5.6445494142000E-02 -4.5216914859000E-02
     4  3.0000000000000E-02 -8.4672798168000E-02 -6.7780069759000E-02
     5  4.0000000000000E-02 -1.1290528242000E-01 -9.0288517322000E-02
     6  5.0000000000000E-02 -1.4114419501000E-01 -1.1272345081000E-01
     7  6.0000000000000E-02 -1.6939037698000E-01 -1.3506557978000E-01
     8  7.0000000000000E-02 -1.9764416444000E-01 -1.5729501634000E-01
     9  8.0000000000000E-02 -2.2590529334000E-01 -1.7939116598000E-01
    10  9.0000000000000E-02 -2.5417280732000E-01 -2.0133262408000E-01
    11  1.0000000000000E-01 -2.8244496915000E-01 -2.2309707887000E-01
    12  1.1000000000000E-01 -3.1071917621000E-01 -2.4466122163000E-01
    13  1.2000000000000E-01 -3.3899188047000E-01 -2.6600066503000E-01
    14  1.3000000000000E-01 -3.6725851339000E-01 -2.8708987034000E-01
    15  1.4000000000000E-01 -3.9551341617000E-01 -3.0790208419000E-01
    16  1.5000000000000E-01 -4.2374977575000E-01 -3.2840928561000E-01
    17  1.6000000000000E-01 -4.5195956687000E-01 -3.4858214399000E-01
    18  1.7000000000000E-01 -4.8013350061000E-01 -3.6838998850000E-01
    19  1.8000000000000E-01 -5.0826097965000E-01 -3.8780078947000E-01
    20  1.9000000000000E-01 -5.3633006056000E-01 -4.0678115231000E-01
    21  2.0000000000000E-01 -5.6432742342000E-01 -4.2529632421000E-01
    22  2.1000000000000E-01 -5.9223834894000E-01 -4.4331021412000E-01
    23  2.2000000000000E-01 -6.2004670325000E-01 -4.6078542610000E-01
    24  2.3000000000000E-01 -6.4773493059000E-01 -4.7768330647000E-01
    25  2.4000000000000E-01 -6.7528405400000E-01 -4.9396400464000E-01
    26  2.5000000000000E-01 -7.0267368405000E-01 -5.0958654788000E-01
    27  2.6000000000000E-01 -7.2988203575000E-01 -5.2450892987000E-01
    28  2.7000000000000E-01 -7.5688595357000E-01 -5.3868821308000E-01
    29  2.8000000000000E-01 -7.8366094466000E-01 -5.5208064453000E-01
    30  2.9000000000000E-01 -8.1018122006000E-01 -5.6464178505000E-01
    31  3.0000000000000E-01 -8.3641974404000E-01 -5.7632665149000E-01
    32  3.1000000000000E-01 -8.6234829123000E-01 -5.8708987150000E-01
    33  3.2000000000000E-01 -8.8793751146000E-01 -5.9688585019000E-01
    34  3.3000000000000E-01 -9.1315700190000E-01 -6.0566894784000E-01
    35  3.4000000000000E-01 -9.3797538772000E-01 -6.1339367183000E-01
    36  3.5000000000000E-01 -9.6236040671000E-01 -6.2001487023000E-01
    37  3.6000000000000E-01 -9.8627900572000E-01 -6.2548794854000E-01
    38  3.7000000000000E-01 -1.0096974376000E+00 -6.2976907921000E-01
    39  3.8000000000000E-01 -1.0325813683000E+00 -6.3281542910000E-01
    40  3.9000000000000E-01 -1.0548959893000E+00 -6.3458539357000E-01
    41  4.0000000000000E-01 -1.0766061328000E+00 -6.3503882872000E-01
    42  4.1000000000000E-01 -1.0976763939000E+00 -6.3413729376000E-01
    43  4.2000000000000E-01 -1.1180712564000E+00 -6.3184429502000E-01
    44  4.3000000000000E-01 -1.1377552226000E+00 -6.2812553181000E-01
    45  4.4000000000000E-01 -1.1566929460000E+00 -6.2294914272000E-01
    46  4.5000000000000E-01 -1.1748493674000E+00 -6.1628595127000E-01
    47  4.6000000000000E-01 -1.1921898527000E+00 -6.0810970922000E-01
    48  4.7000000000000E-01 -1.2086803323000E+00 -5.9839733635000E-01
    49  4.8000000000000E-01 -1.2242874399000E+00 -5.8712915114000E-01
    50  4.9000000000000E-01 -1.2389786543000E+00 -5.7428910148000E-01
    51  5.0000000000000E-01 -1.2527224472000E+00 -5.5986499706000E-01
    52  5.1000000000000E-01 -1.2654884143000E+00 -5.4384870300000E-01
    53  5.2000000000000E-01 -1.2772474045000E+00 -5.2623632473000E-01
    54  5.3000000000000E-01 -1.2879716911000E+00 -5.0702845469000E-01
    55  5.4000000000000E-01 -1.2976350646000E+00 -4.8623027470000E-01
    56  5.5000000000000E-01 -1.3062129874000E+00 -4.6385175651000E-01
    57  5.6000000000000E-01 -1.3136827195000E+00 -4.3990779888000E-01
    58  5.7000000000000E-01 -1.3200234233000E+00 -4.1441832542000E-01
    59  5.8000000000000E-01 -1.3252163082000E+00 -3.8740842892000E-01
    60  5.9000000000000E-01 -1.3292447140000E+00 -3.5890841425000E-01
    61  6.0000000000000E-01 -1.3320942308000E+00 -3.2895388000000E-01
    62  6.1000000000000E-01 -1.3337528104000E+00 -2.9758577258000E-01
    63  6.2000000000000E-01 -1.3342107988000E+00 -2.6485032981000E-01
    64  6.3000000000000E-01 -1.3334611157000E+00 -2.3079918256000E-01
    65  6.4000000000000E-01 -1.3314992447000E+00 -1.9548921930000E-01
    66  6.5000000000000E-01 -1.3283233091000E+00 -1.5898254185000E-01
    67  6.6000000000000E-01 -1.3239341926000E+00 -1.2134642812000E-01
    68  6.7000000000000E-01 -1.3183355172000E+00 -8.2653150320000E-02
    69  6.8000000000000E-01 -1.3115336917000E+00 -4.2979845639000E-02
    70  6.9000000000000E-01 -1.3035379589000E+00 -2.4083517635000E-03
    71  7.0000000000000E-01 -1.2943604150000E+00  3.8975005336000E-02
    72  7.1000000000000E-01 -1.2840159881000E+00  8.1079652409000E-02
    73  7.2000000000000E-01 -1.2725224433000E+00  1.2381102588000E-01
    74  7.3000000000000E-01 -1.2599003611000E+00  1.6707085666000E-01
    75  7.4000000000000E-01 -1.2461731164000E+00  2.1075749183000E-01
    76  7.5000000000000E-01 -1.2313668437000E+00  2.5476626062000E-01
    77  7.6000000000000E-01 -1.2155103671000E+00  2.9898982326000E-01
    78  7.7000000000000E-01 -1.1986351443000E+00  3.4331857540000E-01
    79  7.8000000000000E-01 -1.1807751919000E+00  3.8764107005000E-01
    80  7.9000000000000E-01 -1.1619669990000E+00  4.3184446236000E-01
    81  8.0000000000000E-01 -1.1422494296000E+00  4.7581497597000E-01
    82  8.1000000000000E-01 -1.1216636141000E+00  5.1943838895000E-01
    83  8.2000000000000E-01 -1.1002528308000E+00  5.6260053758000E-01
    84  8.3000000000000E-01 -1.0780623759000E+00  6.0518783591000E-01
    85  8.4000000000000E-01 -1.0551394246000E+00  6.4708780888000E-01
    86  8.5000000000000E-01 -1.0315328824000E+00  6.8818963657000E-01
    87  8.6000000000000E-01 -1.0072932274000E+00  7.2838470711000E-01
    88  8.7000000000000E-01 -9.8247234402000E-01  7.6756717557000E-01
    89  8.8000000000000E-01 -9.5712334873000E-01  8.0563452583000E-01
    90  8.9000000000000E-01 -9.3130040903000E-01  8.4248813254000E-01
    91  9.0000000000000E-01 -9.0505855525000E-01  8.7803381974000E-01
    92  9.1000000000000E-01 -8.7845348673000E-01  9.1218241290000E-01
    93  9.2000000000000E-01 -8.5154137294000E-01  9.4485028066000E-01
    94  9.3000000000000E-01 -8.2437865042000E-01  9.7595986251000E-01
    95  9.4000000000000E-01 -7.9702181635000E-01  1.0054401785000E+00
    96  9.5000000000000E-01 -7.6952722003000E-01  1.0332273167000E+00
    97  9.6000000000000E-01 -7.4195085302000E-01  1.0592648945000E+00
    98  9.7000000000000E-01 -7.1434821609000E-01  1.0835042363000E+00
    99  9.8000000000000E-01 -6.8677390600000E-01  1.1059054759000E+00
   100  9.9000000000000E-01 -6.5928155968000E-01  1.1264373575000E+00
   101  1.0000000000000E+00 -6.3192362688000E-01  1.1450776414000E+00
   102  1.0100000000000E+00 -6.0475115787000E-01  1.1618134115000E+00
   103  1.0200000000000E+00 -5.7781360791000E-01  1.1766412913000E+00
   104  1.0300000000000E+00 -5.5115873666000E-01  1.1895673908000E+00
   105  1.0400000000000E+00 -5.2483227904000E-01  1.2006078275000E+00
   106  1.0500000000000E+00 -4.9887765189000E-01  1.2097889728000E+00
   107  1.0600000000000E+00 -4.7333605091000E-01  1.2171467753000E+00
   108  1.0700000000000E+00 -4.4824620147000E-01  1.2227269116000E+00
   109  1.0800000000000E+00 -4.2364436891000E-01  1.2265843699000E+00
   110  1.0900000000000E+00 -3.9956392409000E-01  1.2287838181000E+00
   111  1.1000000000000E+00 -3.7603514691000E-01  1.2293991989000E+00
   112  1.1100000000000E+00 -3.5308549759000E-01  1.2285126948000E+00
   113  1.1200000000000E+00 -3.3073948786000E-01  1.2262144162000E+00
   114  1.1300000000000E+00 -3.0901860407000E-01  1.2226020205000E+00
   115  1.1400000000000E+00 -2.8794058194000E-01  1.2177802161000E+00
   116  1.1500000000000E+00 -2.6752024376000E-01  1.2118592021000E+00
   117  1.1600000000000E+00 -2.4776940468000E-01  1.2049542364000E+00
   118  1.1700000000000E+00 -2.2869649292000E-01  1.1971848138000E+00
   119  1.1800000000000E+00 -2.1030639794000E-01  1.1886726091000E+00
   120  1.1900000000000E+00 -1.9260118193000E-01  1.1795407194000E+00
   121  1.2000000000000E+00 -1.7558023252000E-01  1.1699138629000E+00
   122  1.2100000000000E+00 -1.5923918508000E-01  1.1599131580000E+00
   123  1.2200000000000E+00 -1.4357125705000E-01  1.1496568083000E+00
   124  1.2300000000000E+00 -1.2856728225000E-01  1.1392603853000E+00
   125  1.2400000000000E+00 -1.1421521153000E-01  1.1288306294000E+00
   126  1.2500000000000E+00 -1.0050086910000E-01  1.1184638960000E+00
   127  1.2600000000000E+00 -8.7408295800000E-02  1.1082495945000E+00
   128  1.2700000000000E+00 -7.4919574579000E-02  1.0982616350000E+00
   129  1.2800000000000E+00 -6.3015584453000E-02  1.0885548433000E+00
   130  1.2900000000000E+00 -5.1675982987000E-02  1.0791709080000E+00
   131  1.3000000000000E+00 -4.0879118758000E-02  1.0701102992000E+00
   132  1.3100000000000E+00 -3.0603560471000E-02  1.0613320189000E+00
   133  1.3200000000000E+00 -2.0827219717000E-02  1.0527743198000E+00
   134  1.3300000000000E+00 -1.1530587296000E-02  1.0443322811000E+00
   135  1.3400000000000E+00 -2.6960536196000E-03  1.0358934750000E+00
   136  1.3500000000000E+00  5.6933329069000E-03  1.0273305821000E+00
   137  1.3600000000000E+00  1.3649262182000E-02  1.0185170714000E+00
   138  1.3700000000000E+00  2.1183224529000E-02  1.0093297980000E+00
   139  1.3800000000000E+00  2.8303792615000E-02  9.9965333877000E-01
   140  1.3900000000000E+00  3.5017205748000E-02  9.8939641258000E-01
   141  1.4000000000000E+00  4.1329605057000E-02  9.7846803855000E-01
   142  1.4100000000000E+00  4.7244681143000E-02  9.6681504516000E-01
   143  1.4200000000000E+00  5.2766576570000E-02  9.5439015193000E-01
   144  1.4300000000000E+00  5.7898783676000E-02  9.4116645561000E-01
   145  1.4400000000000E+00  6.2645082956000E-02  9.2714066624000E-01
   146  1.4500000000000E+00  6.7009455920000E-02  9.1231056879000E-01
   147  1.4600000000000E+00  7.0996674550000E-02  8.9670333343000E-01
   148  1.4700000000000E+00  7.4611963115000E-02  8.8034409702000E-01
   149  1.4800000000000E+00  7.7861475917000E-02  8.6327401399000E-01
   150  1.4900000000000E+00  8.0752158018000E-02  8.4553810801000E-01
   151  1.5000000000000E+00  8.3291622422000E-02  8.2718729446000E-01
   152  1.5100000000000E+00  8.5488566224000E-02  8.0827659158000E-01
   153  1.5200000000000E+00  8.7352042038000E-02  7.8886328917000E-01
   154  1.5300000000000E+00  8.8892215701000E-02  7.6900544989000E-01
   155  1.5400000000000E+00  9.0119548828000E-02  7.4876295213000E-01
   156  1.5500000000000E+00  9.1045280625000E-02  7.2819357681000E-01
   157  1.5600000000000E+00  9.1681015941000E-02  7.0735601617000E-01
   158  1.5700000000000E+00  9.2038858010000E-02  6.8630639840000E-01
   159  1.5800000000000E+00  9.2131194283000E-02  6.6509973448000E-01
   160  1.5900000000000E+00  9.1970801067000E-02  6.4378951592000E-01
   161  1.6000000000000E+00  9.1570514692000E-02  6.2242582573000E-01
   162  1.6100000000000E+00  9.0943594386000E-02  6.0105880450000E-01
   163  1.6200000000000E+00  9.0103044884000E-02  5.7973316575000E-01
   164  1.6300000000000E+00  8.9062419882000E-02  5.5849519495000E-01
   165  1.6400000000000E+00  8.7834667821000E-02  5.3738425932000E-01
   166  1.6500000000000E+00  8.6433452357000E-02  5.1644245618000E-01
   167  1.6600000000000E+00  8.4871490865000E-02  4.9570406704000E-01
   168  1.6700000000000E+00  8.3162378388000E-02  4.7520680357000E-01
   169  1.6800000000000E+00  8.1318468468000E-02  4.5498022397000E-01
   170  1.6900000000000E+00  7.9353115688000E-02  4.3505755773000E-01
   171  1.7000000000000E+00  7.7278212047000E-02  4.1546403183000E-01
   172  1.7100000000000E+00  7.5106706083000E-02  3.9622836724000E-01
   173  1.7200000000000E+00  7.2849960607000E-02  3.7737184740000E-01
   174  1.7300000000000E+00  7.0520357522000E-02  3.5891870492000E-01
   175  1.7400000000000E+00  6.8128689522000E-02  3.4088664870000E-01
   176  1.7500000000000E+00  6.5686615086000E-02  3.2329547451000E-01
   177  1.7600000000000E+00  6.3204339951000E-02  3.0615966109000E-01
   178  1.7700000000000E+00  6.0692646067000E-02  2.8949464442000E-01
   179  1.7800000000000E+00  5.8161156381000E-02  2.7331198797000E-01
   180  1.7900000000000E+00  5.5619628883000E-02  2.5762287355000E-01
   181  1.8000000000000E+00  5.3077124086000E-02  2.4243622725000E-01
   182  1.8100000000000E+00  5.0542239380000E-02  2.2775912159000E-01
   183  1.8200000000000E+00  4.8023501758000E-02  2.1359807490000E-01
   184  1.8300000000000E+00  4.5528231064000E-02  1.9995625095000E-01
   185  1.8400000000000E+00  4.3064447069000E-02  1.8683792722000E-01
   186  1.8500000000000E+00  4.0638107774000E-02  1.7424263357000E-01
   187  1.8600000000000E+00  3.8256734615000E-02  1.6217249646000E-01
   188  1.8700000000000E+00  3.5925087076000E-02  1.5062410033000E-01
   189  1.8800000000000E+00  3.3649566515000E-02  1.3959645380000E-01
   190  1.8900000000000E+00  3.1434393662000E-02  1.2908458786000E-01
   191  1.9000000000000E+00  2.9284476182000E-02  1.1908411059000E-01
   192  1.9100000000000E+00  2.7203678286000E-02  1.0958878635000E-01
   193  1.9200000000000E+00  2.5195325304000E-02  1.0059114418000E-01
   194  1.9300000000000E+00  2.3262974752000E-02  9.2083683330000E-02
   195  1.9400000000000E+00  2.1408405235000E-02  8.4056381276000E-02
   196  1.9500000000000E+00  1.9634808063000E-02  7.6500313885000E-02
   197  1.9600000000000E+00  1.7942846275000E-02  6.9403752540000E-02
   198  1.9700000000000E+00  1.6334421616000E-02  6.2755605957000E-02
   199  1.9800000000000E+00  1.4810054472000E-02  5.6543447984000E-02
   200  1.9900000000000E+00  1.3370091312000E-02  5.0754258899000E-02
   201  2.0000000000000E+00  1.2014931246000E-02  4.5374726418000E-02
   202  2.0100000000000E+00  1.0743576870000E-02  4.0390638638000E-02
   203  2.0200000000000E+00  9.5560333975000E-03  3.5787502546000E-02
   204  2.0300000000000E+00  8.4505812108000E-03  3.1550521091000E-02
   205  2.0400000000000E+00  7.4260862543000E-03  2.7664267876000E-02
   206  2.0500000000000E+00  6.4808452755000E-03  2.4113275888000E-02
   207  2.0600000000000E+00  5.6125602920000E-03  2.0881993745000E-02
   208  2.0700000000000E+00  4.8194090931000E-03  1.7953831480000E-02
   209  2.0800000000000E+00  4.0984157774000E-03  1.5313579003000E-02
   210  2.0900000000000E+00  3.4470424015000E-03  1.2944459444000E-02
   211  2.1000000000000E+00  2.8623005910000E-03  1.0830669709000E-02
   212  2.1100000000000E+00  2.3409480898000E-03  8.9565811653000E-03
   213  2.1200000000000E+00  1.8798492482000E-03  7.3050254242000E-03
   214  2.1300000000000E+00  1.4754749275000E-03  5.8617649047000E-03
   215  2.1400000000000E+00  1.1242993649000E-03  4.6101871077000E-03
   216  2.1500000000000E+00  8.2275609307000E-04  3.5353189670000E-03
   217  2.1600000000000E+00  5.6722371900000E-04  2.6231351342000E-03
   218  2.1700000000000E+00  3.5380455999000E-04  1.8568031558000E-03
   219  2.1800000000000E+00  1.7906799390000E-04  1.2244957924000E-03
   220  2.1900000000000E+00  3.9175479243000E-05  7.1145314742000E-04
   221  2.2000000000000E+00 -6.9563899372000E-05  3.0398749557000E-04
   222  2.2100000000000E+00 -1.5042686328000E-04 -8.9051522939000E-06
   223  2.2200000000000E+00 -2.0738093672000E-04 -2.4166157102000E-04
   224  2.2300000000000E+00 -2.4340600869000E-04 -4.0404358183000E-04
   225  2.2400000000000E+00 -2.6168902892000E-04 -5.0662623854000E-04
   226  2.2500000000000E+00 -2.6590392705000E-04 -5.6194581045000E-04
   227  2.2600000000000E+00 -2.5821171217000E-04 -5.7657207476000E-04
   228  2.2700000000000E+00 -2.4176438089000E-04 -5.6075544754000E-04
   229  2.2800000000000E+00 -2.1916537887000E-04 -5.2282735721000E-04
   230  2.2900000000000E+00 -1.9209316461000E-04 -4.6789193181000E-04
   231  2.3000000000000E+00 -1.6341344735000E-04 -4.0496846495000E-04
   232  2.3100000000000E+00 -1.3436562271000E-04 -3.3789566867000E-04
   233  2.3200000000000E+00 -1.0611056278000E-04 -2.7026100964000E-04
   234  2.3300000000000E+00 -8.1064671060000E-05 -2.0946348948000E-04
   235  2.3400000000000E+00 -5.8949209202000E-05 -1.5484602095000E-04
   236  2.3500000000000E+00 -4.0573918929000E-05 -1.0898232458000E-04
   237  2.3600000000000E+00 -2.7062732269000E-05 -7.5354929872000E-05
   238  2.3700000000000E+00 -1.7264995276000E-05 -5.0934286974000E-05
   239  2.3800000000000E+00 -1.1361026416000E-05 -3.6698428998000E-05
   240  2.3900000000000E+00 -9.0187223690000E-06 -3.1955472692000E-05
   241  2.4000000000000E+00 -8.2275179000000E-06 -3.0527339774000E-05
   242  2.4100000000000E+00 -6.4979956464000E-06 -2.4594376958000E-05
   243  2.4200000000000E+00 -3.5021442825000E-06 -1.3564940118000E-05
   244  2.4300000000000E+00 -8.1492721747000E-07 -3.2121979946000E-06
   245  2.4400000000000E+00  4.2135375221000E-07  1.5707686451000E-06
   246  2.4500000000000E+00  4.9654080995000E-07  1.8510591901000E-06
   247  2.4600000000000E+00  1.3679919748000E-07  5.0997502442000E-07
   248  2.4700000000000E+00  0.0000000000000E+00  0.0000000000000E+00
   249  2.4800000000000E+00  0.0000000000000E+00  0.0000000000000E+00
   250  2.4900000000000E+00  0.0000000000000E+00  0.0000000000000E+00
   251  2.5000000000000E+00  0.0000000000000E+00  0.0000000000000E+00
   252  2.5100000000000E+00  0.0000000000000E+00  0.0000000000000E+00
   253  2.5200000000000E+00  0.0000000000000E+00  0.0000000000000E+00
   254  2.5300000000000E+00  0.0000000000000E+00  0.0000000000000E+00
   255  2.5400000000000E+00  0.0000000000000E+00  0.0000000000000E+00
   256  2.5500000000000E+00  0.0000000000000E+00  0.0000000000000E+00
   257  2.5600000000000E+00  0.0000000000000E+00  0.0000000000000E+00
   258  2.5700000000000E+00  0.0000000000000E+00  0.0000000000000E+00
   259  2.5800000000000E+00  0.0000000000000E+00  0.0000000000000E+00
   260  2.5900000000000E+00  0.0000000000000E+00  0.0000000000000E+00
   261  2.6000000000000E+00  0.0000000000000E+00  0.0000000000000E+00
   262  2.6100000000000E+00  0.0000000000000E+00  0.0000000000000E+00
   263  2.6200000000000E+00  0.0000000000000E+00  0.0000000000000E+00
   264  2.6300000000000E+00  0.0000000000000E+00  0.0000000000000E+00
   265  2.6400000000000E+00  0.0000000000000E+00  0.0000000000000E+00
   266  2.6500000000000E+00  0.0000000000000E+00  0.0000000000000E+00
   267  2.6600000000000E+00  0.0000000000000E+00  0.0000000000000E+00
   268  2.6700000000000E+00  0.0000000000000E+00  0.0000000000000E+00
   269  2.6800000000000E+00  0.0000000000000E+00  0.0000000000000E+00
   270  2.6900000000000E+00  0.0000000000000E+00  0.0000000000000E+00
   271  2.7000000000000E+00  0.0000000000000E+00  0.0000000000000E+00
   272  2.7100000000000E+00  0.0000000000000E+00  0.0000000000000E+00
   273  2.7200000000000E+00  0.0000000000000E+00  0.0000000000000E+00
   274  2.7300000000000E+00  0.0000000000000E+00  0.0000000000000E+00
   275  2.7400000000000E+00  0.0000000000000E+00  0.0000000000000E+00
   276  2.7500000000000E+00  0.0000000000000E+00  0.0000000000000E+00
   277  2.7600000000000E+00  0.0000000000000E+00  0.0000000000000E+00
   278  2.7700000000000E+00  0.0000000000000E+00  0.0000000000000E+00
   279  2.7800000000000E+00  0.0000000000000E+00  0.0000000000000E+00
   280  2.7900000000000E+00  0.0000000000000E+00  0.0000000000000E+00
   281  2.8000000000000E+00  0.0000000000000E+00  0.0000000000000E+00
   282  2.8100000000000E+00  0.0000000000000E+00  0.0000000000000E+00
   283  2.8200000000000E+00  0.0000000000000E+00  0.0000000000000E+00
   284  2.8300000000000E+00  0.0000000000000E+00  0.0000000000000E+00
   285  2.8400000000000E+00  0.0000000000000E+00  0.0000000000000E+00
   286  2.8500000000000E+00  0.0000000000000E+00  0.0000000000000E+00
   287  2.8600000000000E+00  0.0000000000000E+00  0.0000000000000E+00
   288  2.8700000000000E+00  0.0000000000000E+00  0.0000000000000E+00
   289  2.8800000000000E+00  0.0000000000000E+00  0.0000000000000E+00
   290  2.8900000000000E+00  0.0000000000000E+00  0.0000000000000E+00
   291  2.9000000000000E+00  0.0000000000000E+00  0.0000000000000E+00
   292  2.9100000000000E+00  0.0000000000000E+00  0.0000000000000E+00
   293  2.9200000000000E+00  0.0000000000000E+00  0.0000000000000E+00
   294  2.9300000000000E+00  0.0000000000000E+00  0.0000000000000E+00
   295  2.9400000000000E+00  0.0000000000000E+00  0.0000000000000E+00
   296  2.9500000000000E+00  0.0000000000000E+00  0.0000000000000E+00
   297  2.9600000000000E+00  0.0000000000000E+00  0.0000000000000E+00
   298  2.9700000000000E+00  0.0000000000000E+00  0.0000000000000E+00
   299  2.9800000000000E+00  0.0000000000000E+00  0.0000000000000E+00
   300  2.9900000000000E+00  0.0000000000000E+00  0.0000000000000E+00
   301  3.0000000000000E+00  0.0000000000000E+00  0.0000000000000E+00
   302  3.0100000000000E+00  0.0000000000000E+00  0.0000000000000E+00
   303  3.0200000000000E+00  0.0000000000000E+00  0.0000000000000E+00
   304  3.0300000000000E+00  0.0000000000000E+00  0.0000000000000E+00
   305  3.0400000000000E+00  0.0000000000000E+00  0.0000000000000E+00
   306  3.0500000000000E+00  0.0000000000000E+00  0.0000000000000E+00
   307  3.0600000000000E+00  0.0000000000000E+00  0.0000000000000E+00
   308  3.0700000000000E+00  0.0000000000000E+00  0.0000000000000E+00
   309  3.0800000000000E+00  0.0000000000000E+00  0.0000000000000E+00
   310  3.0900000000000E+00  0.0000000000000E+00  0.0000000000000E+00
   311  3.1000000000000E+00  0.0000000000000E+00  0.0000000000000E+00
   312  3.1100000000000E+00  0.0000000000000E+00  0.0000000000000E+00
   313  3.1200000000000E+00  0.0000000000000E+00  0.0000000000000E+00
   314  3.1300000000000E+00  0.0000000000000E+00  0.0000000000000E+00
   315  3.1400000000000E+00  0.0000000000000E+00  0.0000000000000E+00
   316  3.1500000000000E+00  0.0000000000000E+00  0.0000000000000E+00
   317  3.1600000000000E+00  0.0000000000000E+00  0.0000000000000E+00
   318  3.1700000000000E+00  0.0000000000000E+00  0.0000000000000E+00
   319  3.1800000000000E+00  0.0000000000000E+00  0.0000000000000E+00
   320  3.1900000000000E+00  0.0000000000000E+00  0.0000000000000E+00
   321  3.2000000000000E+00  0.0000000000000E+00  0.0000000000000E+00
   322  3.2100000000000E+00  0.0000000000000E+00  0.0000000000000E+00
   323  3.2200000000000E+00  0.0000000000000E+00  0.0000000000000E+00
   324  3.2300000000000E+00  0.0000000000000E+00  0.0000000000000E+00
   325  3.2400000000000E+00  0.0000000000000E+00  0.0000000000000E+00
   326  3.2500000000000E+00  0.0000000000000E+00  0.0000000000000E+00
   327  3.2600000000000E+00  0.0000000000000E+00  0.0000000000000E+00
   328  3.2700000000000E+00  0.0000000000000E+00  0.0000000000000E+00
   329  3.2800000000000E+00  0.0000000000000E+00  0.0000000000000E+00
   330  3.2900000000000E+00  0.0000000000000E+00  0.0000000000000E+00
   331  3.3000000000000E+00  0.0000000000000E+00  0.0000000000000E+00
   332  3.3100000000000E+00  0.0000000000000E+00  0.0000000000000E+00
   333  3.3200000000000E+00  0.0000000000000E+00  0.0000000000000E+00
   334  3.3300000000000E+00  0.0000000000000E+00  0.0000000000000E+00
   335  3.3400000000000E+00  0.0000000000000E+00  0.0000000000000E+00
   336  3.3500000000000E+00  0.0000000000000E+00  0.0000000000000E+00
   337  3.3600000000000E+00  0.0000000000000E+00  0.0000000000000E+00
   338  3.3700000000000E+00  0.0000000000000E+00  0.0000000000000E+00
   339  3.3800000000000E+00  0.0000000000000E+00  0.0000000000000E+00
   340  3.3900000000000E+00  0.0000000000000E+00  0.0000000000000E+00
   341  3.4000000000000E+00  0.0000000000000E+00  0.0000000000000E+00
   342  3.4100000000000E+00  0.0000000000000E+00  0.0000000000000E+00
   343  3.4200000000000E+00  0.0000000000000E+00  0.0000000000000E+00
   344  3.4300000000000E+00  0.0000000000000E+00  0.0000000000000E+00
   345  3.4400000000000E+00  0.0000000000000E+00  0.0000000000000E+00
   346  3.4500000000000E+00  0.0000000000000E+00  0.0000000000000E+00
   347  3.4600000000000E+00  0.0000000000000E+00  0.0000000000000E+00
   348  3.4700000000000E+00  0.0000000000000E+00  0.0000000000000E+00
   349  3.4800000000000E+00  0.0000000000000E+00  0.0000000000000E+00
   350  3.4900000000000E+00  0.0000000000000E+00  0.0000000000000E+00
   351  3.5000000000000E+00  0.0000000000000E+00  0.0000000000000E+00
   352  3.5100000000000E+00  0.0000000000000E+00  0.0000000000000E+00
   353  3.5200000000000E+00  0.0000000000000E+00  0.0000000000000E+00
   354  3.5300000000000E+00  0.0000000000000E+00  0.0000000000000E+00
   355  3.5400000000000E+00  0.0000000000000E+00  0.0000000000000E+00
   356  3.5500000000000E+00  0.0000000000000E+00  0.0000000000000E+00
   357  3.5600000000000E+00  0.0000000000000E+00  0.0000000000000E+00
   358  3.5700000000000E+00  0.0000000000000E+00  0.0000000000000E+00
   359  3.5800000000000E+00  0.0000000000000E+00  0.0000000000000E+00
   360  3.5900000000000E+00  0.0000000000000E+00  0.0000000000000E+00
   361  3.6000000000000E+00  0.0000000000000E+00  0.0000000000000E+00
   362  3.6100000000000E+00  0.0000000000000E+00  0.0000000000000E+00
   363  3.6200000000000E+00  0.0000000000000E+00  0.0000000000000E+00
   364  3.6300000000000E+00  0.0000000000000E+00  0.0000000000000E+00
   365  3.6400000000000E+00  0.0000000000000E+00  0.0000000000000E+00
   366  3.6500000000000E+00  0.0000000000000E+00  0.0000000000000E+00
   367  3.6600000000000E+00  0.0000000000000E+00  0.0000000000000E+00
   368  3.6700000000000E+00  0.0000000000000E+00  0.0000000000000E+00
   369  3.6800000000000E+00  0.0000000000000E+00  0.0000000000000E+00
   370  3.6900000000000E+00  0.0000000000000E+00  0.0000000000000E+00
   371  3.7000000000000E+00  0.0000000000000E+00  0.0000000000000E+00
   372  3.7100000000000E+00  0.0000000000000E+00  0.0000000000000E+00
   373  3.7200000000000E+00  0.0000000000000E+00  0.0000000000000E+00
   374  3.7300000000000E+00  0.0000000000000E+00  0.0000000000000E+00
   375  3.7400000000000E+00  0.0000000000000E+00  0.0000000000000E+00
   376  3.7500000000000E+00  0.0000000000000E+00  0.0000000000000E+00
   377  3.7600000000000E+00  0.0000000000000E+00  0.0000000000000E+00
   378  3.7700000000000E+00  0.0000000000000E+00  0.0000000000000E+00
   379  3.7800000000000E+00  0.0000000000000E+00  0.0000000000000E+00
   380  3.7900000000000E+00  0.0000000000000E+00  0.0000000000000E+00
   381  3.8000000000000E+00  0.0000000000000E+00  0.0000000000000E+00
   382  3.8100000000000E+00  0.0000000000000E+00  0.0000000000000E+00
   383  3.8200000000000E+00  0.0000000000000E+00  0.0000000000000E+00
   384  3.8300000000000E+00  0.0000000000000E+00  0.0000000000000E+00
   385  3.8400000000000E+00  0.0000000000000E+00  0.0000000000000E+00
   386  3.8500000000000E+00  0.0000000000000E+00  0.0000000000000E+00
   387  3.8600000000000E+00  0.0000000000000E+00  0.0000000000000E+00
   388  3.8700000000000E+00  0.0000000000000E+00  0.0000000000000E+00
   389  3.8800000000000E+00  0.0000000000000E+00  0.0000000000000E+00
   390  3.8900000000000E+00  0.0000000000000E+00  0.0000000000000E+00
   391  3.9000000000000E+00  0.0000000000000E+00  0.0000000000000E+00
   392  3.9100000000000E+00  0.0000000000000E+00  0.0000000000000E+00
   393  3.9200000000000E+00  0.0000000000000E+00  0.0000000000000E+00
   394  3.9300000000000E+00  0.0000000000000E+00  0.0000000000000E+00
   395  3.9400000000000E+00  0.0000000000000E+00  0.0000000000000E+00
   396  3.9500000000000E+00  0.0000000000000E+00  0.0000000000000E+00
   397  3.9600000000000E+00  0.0000000000000E+00  0.0000000000000E+00
   398  3.9700000000000E+00  0.0000000000000E+00  0.0000000000000E+00
   399  3.9800000000000E+00  0.0000000000000E+00  0.0000000000000E+00
   400  3.9900000000000E+00  0.0000000000000E+00  0.0000000000000E+00
   401  4.0000000000000E+00  0.0000000000000E+00  0.0000000000000E+00
   402  4.0100000000000E+00  0.0000000000000E+00  0.0000000000000E+00
   403  4.0200000000000E+00  0.0000000000000E+00  0.0000000000000E+00
   404  4.0300000000000E+00  0.0000000000000E+00  0.0000000000000E+00
   405  4.0400000000000E+00  0.0000000000000E+00  0.0000000000000E+00
   406  4.0500000000000E+00  0.0000000000000E+00  0.0000000000000E+00
   407  4.0600000000000E+00  0.0000000000000E+00  0.0000000000000E+00
   408  4.0700000000000E+00  0.0000000000000E+00  0.0000000000000E+00
   409  4.0800000000000E+00  0.0000000000000E+00  0.0000000000000E+00
   410  4.0900000000000E+00  0.0000000000000E+00  0.0000000000000E+00
   411  4.1000000000000E+00  0.0000000000000E+00  0.0000000000000E+00
   412  4.1100000000000E+00  0.0000000000000E+00  0.0000000000000E+00
   413  4.1200000000000E+00  0.0000000000000E+00  0.0000000000000E+00
   414  4.1300000000000E+00  0.0000000000000E+00  0.0000000000000E+00
   415  4.1400000000000E+00  0.0000000000000E+00  0.0000000000000E+00
   416  4.1500000000000E+00  0.0000000000000E+00  0.0000000000000E+00
   417  4.1600000000000E+00  0.0000000000000E+00  0.0000000000000E+00
   418  4.1700000000000E+00  0.0000000000000E+00  0.0000000000000E+00
   419  4.1800000000000E+00  0.0000000000000E+00  0.0000000000000E+00
   420  4.1900000000000E+00  0.0000000000000E+00  0.0000000000000E+00
   421  4.2000000000000E+00  0.0000000000000E+00  0.0000000000000E+00
   422  4.2100000000000E+00  0.0000000000000E+00  0.0000000000000E+00
   423  4.2200000000000E+00  0.0000000000000E+00  0.0000000000000E+00