Al    ONCVPSP-4.0.1  r_core=   2.40380   2.40380   2.66112
     13.0000      3.0000      200425    zatom,zion,pspd
     8       2   0     0   11000     0    pspcod,pspxc,lmax,lloc,mmax,r2well
  10.99900000  0.00000000  0.00000000    rchrg fchrg qchrg
     0     0     0     0     0    nproj
     1     1           extension_switch
   0
    1 0.0000000000000E+00 5.8494554913600E-01
    2 1.0000000000000E-03 5.8494554913600E-01
    3 2.0000000000000E-03 5.8493814409600E-01
    4 3.0000000000000E-03 5.8492580240100E-01
    5 4.0000000000000E-03 5.8490852411300E-01
    6 5.0000000000000E-03 5.8488630931600E-01
    7 6.0000000000000E-03 5.8485915811900E-01
    8 7.0000000000000E-03 5.8482707065500E-01
    9 8.0000000000000E-03 5.8479004708000E-01
   10 9.0000000000000E-03 5.8474808757500E-01
   11 1.0000000000000E-02 5.8470119234600E-01
   12 1.1000000000000E-02 5.8464936162200E-01
   13 1.2000000000000E-02 5.8459259565600E-01
   14 1.3000000000000E-02 5.8453089472600E-01
   15 1.4000000000000E-02 5.8446425913300E-01
   16 1.5000000000000E-02 5.8439268920400E-01
   17 1.6000000000000E-02 5.8431618528800E-01
   18 1.7000000000000E-02 5.8423474775900E-01
   19 1.8000000000000E-02 5.8414837701500E-01
   20 1.9000000000000E-02 5.8405707347900E-01
   21 2.0000000000000E-02 5.8396083759700E-01
   22 2.1000000000000E-02 5.8385966983900E-01
   23 2.2000000000000E-02 5.8375357070100E-01
   24 2.3000000000000E-02 5.8364254070000E-01
   25 2.4000000000000E-02 5.8352658038000E-01
   26 2.5000000000000E-02 5.8340569030700E-01
   27 2.6000000000000E-02 5.8327987107300E-01
   28 2.7000000000000E-02 5.8314912329300E-01
   29 2.8000000000000E-02 5.8301344760500E-01
   30 2.9000000000000E-02 5.8287284467300E-01
   31 3.0000000000000E-02 5.8272731518500E-01
   32 3.1000000000000E-02 5.8257685985100E-01
   33 3.2000000000000E-02 5.8242147940700E-01
   34 3.3000000000000E-02 5.8226117461300E-01
   35 3.4000000000000E-02 5.8209594625300E-01
   36 3.5000000000000E-02 5.8192579513300E-01
   37 3.6000000000000E-02 5.8175072208600E-01
   38 3.7000000000000E-02 5.8157072796700E-01
   39 3.8000000000000E-02 5.8138581365700E-01
   40 3.9000000000000E-02 5.8119598005900E-01
   41 4.0000000000000E-02 5.8100122810000E-01
   42 4.1000000000000E-02 5.8080155873300E-01
   43 4.2000000000000E-02 5.8059697293400E-01
   44 4.3000000000000E-02 5.8038747170200E-01
   45 4.4000000000000E-02 5.8017305606200E-01
   46 4.5000000000000E-02 5.7995372706000E-01
   47 4.6000000000000E-02 5.7972948577000E-01
   48 4.7000000000000E-02 5.7950033328700E-01
   49 4.8000000000000E-02 5.7926627073100E-01
   50 4.9000000000000E-02 5.7902729924500E-01
   51 5.0000000000000E-02 5.7878341999800E-01
   52 5.1000000000000E-02 5.7853463418100E-01
   53 5.2000000000000E-02 5.7828094301000E-01
   54 5.3000000000000E-02 5.7802234772500E-01
   55 5.4000000000000E-02 5.7775884958800E-01
   56 5.5000000000000E-02 5.7749044988800E-01
   57 5.6000000000000E-02 5.7721714993600E-01
   58 5.7000000000000E-02 5.7693895106600E-01
   59 5.8000000000000E-02 5.7665585464000E-01
   60 5.9000000000000E-02 5.7636786203800E-01
   61 6.0000000000000E-02 5.7607497467000E-01
   62 6.1000000000000E-02 5.7577719396400E-01
   63 6.2000000000000E-02 5.7547452137700E-01
   64 6.3000000000000E-02 5.7516695838600E-01
   65 6.4000000000000E-02 5.7485450649400E-01
   66 6.5000000000000E-02 5.7453716722700E-01
   67 6.6000000000000E-02 5.7421494213600E-01
   68 6.7000000000000E-02 5.7388783279400E-01
   69 6.8000000000000E-02 5.7355584079800E-01
   70 6.9000000000000E-02 5.7321896777100E-01
   71 7.0000000000000E-02 5.7287721535800E-01
   72 7.1000000000000E-02 5.7253058522800E-01
   73 7.2000000000000E-02 5.7217907907300E-01
   74 7.3000000000000E-02 5.7182269861100E-01
   75 7.4000000000000E-02 5.7146144558000E-01
   76 7.5000000000000E-02 5.7109532174700E-01
   77 7.6000000000000E-02 5.7072432889800E-01
   78 7.7000000000000E-02 5.7034846884500E-01
   79 7.8000000000000E-02 5.6996774342200E-01
   80 7.9000000000000E-02 5.6958215449000E-01
   81 8.0000000000000E-02 5.6919170393100E-01
   82 8.1000000000000E-02 5.6879639365000E-01
   83 8.2000000000000E-02 5.6839622557700E-01
   84 8.3000000000000E-02 5.6799120166700E-01
   85 8.4000000000000E-02 5.6758132389700E-01
   86 8.5000000000000E-02 5.6716659426600E-01
   87 8.6000000000000E-02 5.6674701480000E-01
   88 8.7000000000000E-02 5.6632258754700E-01
   89 8.8000000000000E-02 5.6589331457700E-01
   90 8.9000000000000E-02 5.6545919798700E-01
   91 9.0000000000000E-02 5.6502023989400E-01
   92 9.1000000000000E-02 5.6457644244100E-01
   93 9.2000000000000E-02 5.6412780779400E-01
   94 9.3000000000000E-02 5.6367433814300E-01
   95 9.4000000000000E-02 5.6321603569800E-01
   96 9.5000000000000E-02 5.6275290269800E-01
   97 9.6000000000000E-02 5.6228494140200E-01
   98 9.7000000000000E-02 5.6181215409200E-01
   99 9.8000000000000E-02 5.6133454307600E-01
  100 9.9000000000000E-02 5.6085211068300E-01
  101 1.0000000000000E-01 5.6036485926700E-01
  102 1.0100000000000E-01 5.5987279120400E-01
  103 1.0200000000000E-01 5.5937590889600E-01
  104 1.0300000000000E-01 5.5887421476500E-01
  105 1.0400000000000E-01 5.5836771125800E-01
  106 1.0500000000000E-01 5.5785640084600E-01
  107 1.0600000000000E-01 5.5734028602300E-01
  108 1.0700000000000E-01 5.5681936930400E-01
  109 1.0800000000000E-01 5.5629365323200E-01
  110 1.0900000000000E-01 5.5576314036700E-01
  111 1.1000000000000E-01 5.5522783329900E-01
  112 1.1100000000000E-01 5.5468773463600E-01
  113 1.1200000000000E-01 5.5414284701200E-01
  114 1.1300000000000E-01 5.5359317308300E-01
  115 1.1400000000000E-01 5.5303871552900E-01
  116 1.1500000000000E-01 5.5247947705200E-01
  117 1.1600000000000E-01 5.5191546037900E-01
  118 1.1700000000000E-01 5.5134666825800E-01
  119 1.1800000000000E-01 5.5077310346200E-01
  120 1.1900000000000E-01 5.5019476878600E-01
  121 1.2000000000000E-01 5.4961166704900E-01
  122 1.2100000000000E-01 5.4902380109100E-01
  123 1.2200000000000E-01 5.4843117377800E-01
  124 1.2300000000000E-01 5.4783378799600E-01
  125 1.2400000000000E-01 5.4723164665800E-01
  126 1.2500000000000E-01 5.4662475269500E-01
  127 1.2600000000000E-01 5.4601310906500E-01
  128 1.2700000000000E-01 5.4539671874800E-01
  129 1.2800000000000E-01 5.4477558474500E-01
  130 1.2900000000000E-01 5.4414971008200E-01
  131 1.3000000000000E-01 5.4351909780700E-01
  132 1.3100000000000E-01 5.4288375099200E-01
  133 1.3200000000000E-01 5.4224367273100E-01
  134 1.3300000000000E-01 5.4159886614000E-01
  135 1.3400000000000E-01 5.4094933435900E-01
  136 1.3500000000000E-01 5.4029508055100E-01
  137 1.3600000000000E-01 5.3963610790100E-01
  138 1.3700000000000E-01 5.3897241961700E-01
  139 1.3800000000000E-01 5.3830401893000E-01
  140 1.3900000000000E-01 5.3763090909400E-01
  141 1.4000000000000E-01 5.3695309338500E-01
  142 1.4100000000000E-01 5.3627057510100E-01
  143 1.4200000000000E-01 5.3558335756500E-01
  144 1.4300000000000E-01 5.3489144412100E-01
  145 1.4400000000000E-01 5.3419483813600E-01
  146 1.4500000000000E-01 5.3349354299800E-01
  147 1.4600000000000E-01 5.3278756212100E-01
  148 1.4700000000000E-01 5.3207689894000E-01
  149 1.4800000000000E-01 5.3136155691000E-01
  150 1.4900000000000E-01 5.3064153951200E-01
  151 1.5000000000000E-01 5.2991685024800E-01
  152 1.5100000000000E-01 5.2918749264300E-01
  153 1.5200000000000E-01 5.2845347024400E-01
  154 1.5300000000000E-01 5.2771478662100E-01
  155 1.5400000000000E-01 5.2697144536500E-01
  156 1.5500000000000E-01 5.2622345009100E-01
  157 1.5600000000000E-01 5.2547080443600E-01
  158 1.5700000000000E-01 5.2471351205900E-01
  159 1.5800000000000E-01 5.2395157664100E-01
  160 1.5900000000000E-01 5.2318500188500E-01
  161 1.6000000000000E-01 5.2241379151800E-01
  162 1.6100000000000E-01 5.2163794928900E-01
  163 1.6200000000000E-01 5.2085747896700E-01
  164 1.6300000000000E-01 5.2007238434500E-01
  165 1.6400000000000E-01 5.1928266923800E-01
  166 1.6500000000000E-01 5.1848833748200E-01
  167 1.6600000000000E-01 5.1768939293800E-01
  168 1.6700000000000E-01 5.1688583948600E-01
  169 1.6800000000000E-01 5.1607768103000E-01
  170 1.6900000000000E-01 5.1526492149400E-01
  171 1.7000000000000E-01 5.1444756482600E-01
  172 1.7100000000000E-01 5.1362561499700E-01
  173 1.7200000000000E-01 5.1279907599600E-01
  174 1.7300000000000E-01 5.1196795183700E-01
  175 1.7400000000000E-01 5.1113224655600E-01
  176 1.7500000000000E-01 5.1029196420900E-01
  177 1.7600000000000E-01 5.0944710887700E-01
  178 1.7700000000000E-01 5.0859768465900E-01
  179 1.7800000000000E-01 5.0774369567800E-01
  180 1.7900000000000E-01 5.0688514608000E-01
  181 1.8000000000000E-01 5.0602204002900E-01
  182 1.8100000000000E-01 5.0515438171500E-01
  183 1.8200000000000E-01 5.0428217534700E-01
  184 1.8300000000000E-01 5.0340542515700E-01
  185 1.8400000000000E-01 5.0252413539800E-01
  186 1.8500000000000E-01 5.0163831034400E-01
  187 1.8600000000000E-01 5.0074795429200E-01
  188 1.8700000000000E-01 4.9985307156000E-01
  189 1.8800000000000E-01 4.9895366648800E-01
  190 1.8900000000000E-01 4.9804974343700E-01
  191 1.9000000000000E-01 4.9714130679000E-01
  192 1.9100000000000E-01 4.9622836095000E-01
  193 1.9200000000000E-01 4.9531091034300E-01
  194 1.9300000000000E-01 4.9438895941700E-01
  195 1.9400000000000E-01 4.9346251263900E-01
  196 1.9500000000000E-01 4.9253157450000E-01
  197 1.9600000000000E-01 4.9159614951000E-01
  198 1.9700000000000E-01 4.9065624220300E-01
  199 1.9800000000000E-01 4.8971185713200E-01
  200 1.9900000000000E-01 4.8876299887100E-01
  201 2.0000000000000E-01 4.8780967201800E-01
  202 2.0100000000000E-01 4.8685188119000E-01
  203 2.0200000000000E-01 4.8588963102400E-01
  204 2.0300000000000E-01 4.8492292618200E-01
  205 2.0400000000000E-01 4.8395177134400E-01
  206 2.0500000000000E-01 4.8297617121200E-01
  207 2.0600000000000E-01 4.8199613050900E-01
  208 2.0700000000000E-01 4.8101165397800E-01
  209 2.0800000000000E-01 4.8002274638700E-01
  210 2.0900000000000E-01 4.7902941251900E-01
  211 2.1000000000000E-01 4.7803165718200E-01
  212 2.1100000000000E-01 4.7702948520500E-01
  213 2.1200000000000E-01 4.7602290143600E-01
  214 2.1300000000000E-01 4.7501191074400E-01
  215 2.1400000000000E-01 4.7399651802000E-01
  216 2.1500000000000E-01 4.7297672817500E-01
  217 2.1600000000000E-01 4.7195254614200E-01
  218 2.1700000000000E-01 4.7092397687200E-01
  219 2.1800000000000E-01 4.6989102534000E-01
  220 2.1900000000000E-01 4.6885369653900E-01
  221 2.2000000000000E-01 4.6781199548400E-01
  222 2.2100000000000E-01 4.6676592721100E-01
  223 2.2200000000000E-01 4.6571549677500E-01
  224 2.2300000000000E-01 4.6466070925300E-01
  225 2.2400000000000E-01 4.6360156974200E-01
  226 2.2500000000000E-01 4.6253808335900E-01
  227 2.2600000000000E-01 4.6147025524200E-01
  228 2.2700000000000E-01 4.6039809054900E-01
  229 2.2800000000000E-01 4.5932159445900E-01
  230 2.2900000000000E-01 4.5824077217200E-01
  231 2.3000000000000E-01 4.5715562890500E-01
  232 2.3100000000000E-01 4.5606616990000E-01
  233 2.3200000000000E-01 4.5497240041500E-01
  234 2.3300000000000E-01 4.5387432573100E-01
  235 2.3400000000000E-01 4.5277195114900E-01
  236 2.3500000000000E-01 4.5166528198800E-01
  237 2.3600000000000E-01 4.5055432358900E-01
  238 2.3700000000000E-01 4.4943908131200E-01
  239 2.3800000000000E-01 4.4831956054000E-01
  240 2.3900000000000E-01 4.4719576667100E-01
  241 2.4000000000000E-01 4.4606770512700E-01
  242 2.4100000000000E-01 4.4493538134900E-01
  243 2.4200000000000E-01 4.4379880079600E-01
  244 2.4300000000000E-01 4.4265796895000E-01
  245 2.4400000000000E-01 4.4151289131100E-01
  246 2.4500000000000E-01 4.4036357339800E-01
  247 2.4600000000000E-01 4.3921002075200E-01
  248 2.4700000000000E-01 4.3805223893300E-01
  249 2.4800000000000E-01 4.3689023351900E-01
  250 2.4900000000000E-01 4.3572401011000E-01
  251 2.5000000000000E-01 4.3455357432400E-01
  252 2.5100000000000E-01 4.3337893180000E-01
  253 2.5200000000000E-01 4.3220008819500E-01
  254 2.5300000000000E-01 4.3101704918700E-01
  255 2.5400000000000E-01 4.2982982047300E-01
  256 2.5500000000000E-01 4.2863840776900E-01
  257 2.5600000000000E-01 4.2744281681100E-01
  258 2.5700000000000E-01 4.2624305335400E-01
  259 2.5800000000000E-01 4.2503912317300E-01
  260 2.5900000000000E-01 4.2383103206100E-01
  261 2.6000000000000E-01 4.2261878583200E-01
  262 2.6100000000000E-01 4.2140239031800E-01
  263 2.6200000000000E-01 4.2018185137100E-01
  264 2.6300000000000E-01 4.1895717486100E-01
  265 2.6400000000000E-01 4.1772836667900E-01
  266 2.6500000000000E-01 4.1649543273300E-01
  267 2.6600000000000E-01 4.1525837895100E-01
  268 2.6700000000000E-01 4.1401721128200E-01
  269 2.6800000000000E-01 4.1277193569100E-01
  270 2.6900000000000E-01 4.1152255816200E-01
  271 2.7000000000000E-01 4.1026908470100E-01
  272 2.7100000000000E-01 4.0901152133000E-01
  273 2.7200000000000E-01 4.0774987409000E-01
  274 2.7300000000000E-01 4.0648414904300E-01
  275 2.7400000000000E-01 4.0521435226800E-01
  276 2.7500000000000E-01 4.0394048986200E-01
  277 2.7600000000000E-01 4.0266256794300E-01
  278 2.7700000000000E-01 4.0138059264600E-01
  279 2.7800000000000E-01 4.0009457012500E-01
  280 2.7900000000000E-01 3.9880450655300E-01
  281 2.8000000000000E-01 3.9751040812100E-01
  282 2.8100000000000E-01 3.9621228103900E-01
  283 2.8200000000000E-01 3.9491013153400E-01
  284 2.8300000000000E-01 3.9360396585400E-01
  285 2.8400000000000E-01 3.9229379026300E-01
  286 2.8500000000000E-01 3.9097961104500E-01
  287 2.8600000000000E-01 3.8966143450200E-01
  288 2.8700000000000E-01 3.8833926695200E-01
  289 2.8800000000000E-01 3.8701311473600E-01
  290 2.8900000000000E-01 3.8568298420800E-01
  291 2.9000000000000E-01 3.8434888174300E-01
  292 2.9100000000000E-01 3.8301081373400E-01
  293 2.9200000000000E-01 3.8166878659200E-01
  294 2.9300000000000E-01 3.8032280674600E-01
  295 2.9400000000000E-01 3.7897288064100E-01
  296 2.9500000000000E-01 3.7761901474400E-01
  297 2.9600000000000E-01 3.7626121553600E-01
  298 2.9700000000000E-01 3.7489948951800E-01
  299 2.9800000000000E-01 3.7353384320800E-01
  300 2.9900000000000E-01 3.7216428314300E-01
  301 3.0000000000000E-01 3.7079081587500E-01
  302 3.0100000000000E-01 3.6941344797800E-01
  303 3.0200000000000E-01 3.6803218604000E-01
  304 3.0300000000000E-01 3.6664703666800E-01
  305 3.0400000000000E-01 3.6525800648700E-01
  306 3.0500000000000E-01 3.6386510213800E-01
  307 3.0600000000000E-01 3.6246833028200E-01
  308 3.0700000000000E-01 3.6106769759500E-01
  309 3.0800000000000E-01 3.5966321077100E-01
  310 3.0900000000000E-01 3.5825487652300E-01
  311 3.1000000000000E-01 3.5684270158000E-01
  312 3.1100000000000E-01 3.5542669268800E-01
  313 3.1200000000000E-01 3.5400685661100E-01
  314 3.1300000000000E-01 3.5258320013100E-01
  315 3.1400000000000E-01 3.5115573004400E-01
  316 3.1500000000000E-01 3.4972445316700E-01
  317 3.1600000000000E-01 3.4828937633200E-01
  318 3.1700000000000E-01 3.4685050638800E-01
  319 3.1800000000000E-01 3.4540785020200E-01
  320 3.1900000000000E-01 3.4396141465800E-01
  321 3.2000000000000E-01 3.4251120665500E-01
  322 3.2100000000000E-01 3.4105723311100E-01
  323 3.2200000000000E-01 3.3959950096000E-01
  324 3.2300000000000E-01 3.3813801715300E-01
  325 3.2400000000000E-01 3.3667278865700E-01
  326 3.2500000000000E-01 3.3520382245800E-01
  327 3.2600000000000E-01 3.3373112555500E-01
  328 3.2700000000000E-01 3.3225470496700E-01
  329 3.2800000000000E-01 3.3077456772700E-01
  330 3.2900000000000E-01 3.2929072088700E-01
  331 3.3000000000000E-01 3.2780317151400E-01
  332 3.3100000000000E-01 3.2631192669200E-01
  333 3.3200000000000E-01 3.2481699352000E-01
  334 3.3300000000000E-01 3.2331837911600E-01
  335 3.3400000000000E-01 3.2181609061100E-01
  336 3.3500000000000E-01 3.2031013515600E-01
  337 3.3600000000000E-01 3.1880051991500E-01
  338 3.3700000000000E-01 3.1728725207000E-01
  339 3.3800000000000E-01 3.1577033881900E-01
  340 3.3900000000000E-01 3.1424978737500E-01
  341 3.4000000000000E-01 3.1272560496800E-01
  342 3.4100000000000E-01 3.1119779884400E-01
  343 3.4200000000000E-01 3.0966637626600E-01
  344 3.4300000000000E-01 3.0813134450900E-01
  345 3.4400000000000E-01 3.0659271086900E-01
  346 3.4500000000000E-01 3.0505048265500E-01
  347 3.4600000000000E-01 3.0350466719100E-01
  348 3.4700000000000E-01 3.0195527182000E-01
  349 3.4800000000000E-01 3.0040230389600E-01
  350 3.4900000000000E-01 2.9884577079400E-01
  351 3.5000000000000E-01 2.9728567990000E-01
  352 3.5100000000000E-01 2.9572203861900E-01
  353 3.5200000000000E-01 2.9415485436900E-01
  354 3.5300000000000E-01 2.9258413458400E-01
  355 3.5400000000000E-01 2.9100988671500E-01
  356 3.5500000000000E-01 2.8943211822700E-01
  357 3.5600000000000E-01 2.8785083660100E-01
  358 3.5700000000000E-01 2.8626604933100E-01
  359 3.5800000000000E-01 2.8467776393100E-01
  360 3.5900000000000E-01 2.8308598792500E-01
  361 3.6000000000000E-01 2.8149072885600E-01
  362 3.6100000000000E-01 2.7989199427900E-01
  363 3.6200000000000E-01 2.7828979176800E-01
  364 3.6300000000000E-01 2.7668412890700E-01
  365 3.6400000000000E-01 2.7507501330000E-01
  366 3.6500000000000E-01 2.7346245256200E-01
  367 3.6600000000000E-01 2.7184645432500E-01
  368 3.6700000000000E-01 2.7022702623500E-01
  369 3.6800000000000E-01 2.6860417595300E-01
  370 3.6900000000000E-01 2.6697791115500E-01
  371 3.7000000000000E-01 2.6534823953100E-01
  372 3.7100000000000E-01 2.6371516878700E-01
  373 3.7200000000000E-01 2.6207870664200E-01
  374 3.7300000000000E-01 2.6043886083000E-01
  375 3.7400000000000E-01 2.5879563910000E-01
  376 3.7500000000000E-01 2.5714904921500E-01
  377 3.7600000000000E-01 2.5549909895300E-01
  378 3.7700000000000E-01 2.5384579610500E-01
  379 3.7800000000000E-01 2.5218914847700E-01
  380 3.7900000000000E-01 2.5052916389100E-01
  381 3.8000000000000E-01 2.4886585018100E-01
  382 3.8100000000000E-01 2.4719921519500E-01
  383 3.8200000000000E-01 2.4552926679700E-01
  384 3.8300000000000E-01 2.4385601286300E-01
  385 3.8400000000000E-01 2.4217946128500E-01
  386 3.8500000000000E-01 2.4049961996700E-01
  387 3.8600000000000E-01 2.3881649682900E-01
  388 3.8700000000000E-01 2.3713009980300E-01
  389 3.8800000000000E-01 2.3544043683600E-01
  390 3.8900000000000E-01 2.3374751588700E-01
  391 3.9000000000000E-01 2.3205134493200E-01
  392 3.9100000000000E-01 2.3035193195800E-01
  393 3.9200000000000E-01 2.2864928496700E-01
  394 3.9300000000000E-01 2.2694341197300E-01
  395 3.9400000000000E-01 2.2523432100400E-01
  396 3.9500000000000E-01 2.2352202010400E-01
  397 3.9600000000000E-01 2.2180651732600E-01
  398 3.9700000000000E-01 2.2008782074100E-01
  399 3.9800000000000E-01 2.1836593843000E-01
  400 3.9900000000000E-01 2.1664087848900E-01
  401 4.0000000000000E-01 2.1491264902600E-01
  402 4.0100000000000E-01 2.1318125816300E-01
  403 4.0200000000000E-01 2.1144671403500E-01
  404 4.0300000000000E-01 2.0970902479000E-01
  405 4.0400000000000E-01 2.0796819859000E-01
  406 4.0500000000000E-01 2.0622424360800E-01
  407 4.0600000000000E-01 2.0447716803100E-01
  408 4.0700000000000E-01 2.0272698006000E-01
  409 4.0800000000000E-01 2.0097368790700E-01
  410 4.0900000000000E-01 1.9921729979700E-01
  411 4.1000000000000E-01 1.9745782396900E-01
  412 4.1100000000000E-01 1.9569526867400E-01
  413 4.1200000000000E-01 1.9392964217600E-01
  414 4.1300000000000E-01 1.9216095275000E-01
  415 4.1400000000000E-01 1.9038920868500E-01
  416 4.1500000000000E-01 1.8861441828300E-01
  417 4.1600000000000E-01 1.8683658985800E-01
  418 4.1700000000000E-01 1.8505573173400E-01
  419 4.1800000000000E-01 1.8327185225100E-01
  420 4.1900000000000E-01 1.8148495976000E-01
  421 4.2000000000000E-01 1.7969506262200E-01
  422 4.2100000000000E-01 1.7790216921400E-01
  423 4.2200000000000E-01 1.7610628792300E-01
  424 4.2300000000000E-01 1.7430742714700E-01
  425 4.2400000000000E-01 1.7250559529800E-01
  426 4.2500000000000E-01 1.7070080079900E-01
  427 4.2600000000000E-01 1.6889305208600E-01
  428 4.2700000000000E-01 1.6708235760500E-01
  429 4.2800000000000E-01 1.6526872581600E-01
  430 4.2900000000000E-01 1.6345216518900E-01
  431 4.3000000000000E-01 1.6163268420700E-01
  432 4.3100000000000E-01 1.5981029136400E-01
  433 4.3200000000000E-01 1.5798499516500E-01
  434 4.3300000000000E-01 1.5615680412700E-01
  435 4.3400000000000E-01 1.5432572678000E-01
  436 4.3500000000000E-01 1.5249177166400E-01
  437 4.3600000000000E-01 1.5065494733100E-01
  438 4.3700000000000E-01 1.4881526234200E-01
  439 4.3800000000000E-01 1.4697272527400E-01
  440 4.3900000000000E-01 1.4512734471000E-01
  441 4.4000000000000E-01 1.4327912924900E-01
  442 4.4100000000000E-01 1.4142808749800E-01
  443 4.4200000000000E-01 1.3957422807700E-01
  444 4.4300000000000E-01 1.3771755961400E-01
  445 4.4400000000000E-01 1.3585809075200E-01
  446 4.4500000000000E-01 1.3399583014200E-01
  447 4.4600000000000E-01 1.3213078644700E-01
  448 4.4700000000000E-01 1.3026296834200E-01
  449 4.4800000000000E-01 1.2839238451000E-01
  450 4.4900000000000E-01 1.2651904364700E-01
  451 4.5000000000000E-01 1.2464295445900E-01
  452 4.5100000000000E-01 1.2276412566200E-01
  453 4.5200000000000E-01 1.2088256598500E-01
  454 4.5300000000000E-01 1.1899828416300E-01
  455 4.5400000000000E-01 1.1711128894600E-01
  456 4.5500000000000E-01 1.1522158909300E-01
  457 4.5600000000000E-01 1.1332919337100E-01
  458 4.5700000000000E-01 1.1143411056100E-01
  459 4.5800000000000E-01 1.0953634945200E-01
  460 4.5900000000000E-01 1.0763591884400E-01
  461 4.6000000000000E-01 1.0573282754600E-01
  462 4.6100000000000E-01 1.0382708437900E-01
  463 4.6200000000000E-01 1.0191869817200E-01
  464 4.6300000000000E-01 1.0000767776600E-01
  465 4.6400000000000E-01 9.8094032011000E-02
  466 4.6500000000000E-01 9.6177769766000E-02
  467 4.6600000000000E-01 9.4258899902000E-02
  468 4.6700000000000E-01 9.2337431297000E-02
  469 4.6800000000000E-01 9.0413372842000E-02
  470 4.6900000000000E-01 8.8486733434000E-02
  471 4.7000000000000E-01 8.6557521982000E-02
  472 4.7100000000000E-01 8.4625747405000E-02
  473 4.7200000000000E-01 8.2691418630000E-02
  474 4.7300000000000E-01 8.0754544594000E-02
  475 4.7400000000000E-01 7.8815134243000E-02
  476 4.7500000000000E-01 7.6873196534000E-02
  477 4.7600000000000E-01 7.4928740431000E-02
  478 4.7700000000000E-01 7.2981774909000E-02
  479 4.7800000000000E-01 7.1032308951000E-02
  480 4.7900000000000E-01 6.9080351550000E-02
  481 4.8000000000000E-01 6.7125911708000E-02
  482 4.8100000000000E-01 6.5168998432000E-02
  483 4.8200000000000E-01 6.3209620753000E-02
  484 4.8300000000000E-01 6.1247787687000E-02
  485 4.8400000000000E-01 5.9283508278000E-02
  486 4.8500000000000E-01 5.7316791570000E-02
  487 4.8600000000000E-01 5.5347646619000E-02
  488 4.8700000000000E-01 5.3376082489000E-02
  489 4.8800000000000E-01 5.1402108252000E-02
  490 4.8900000000000E-01 4.9425732990000E-02
  491 4.9000000000000E-01 4.7446965791000E-02
  492 4.9100000000000E-01 4.5465815755000E-02
  493 4.9200000000000E-01 4.3482291987000E-02
  494 4.9300000000000E-01 4.1496403603000E-02
  495 4.9400000000000E-01 3.9508159726000E-02
  496 4.9500000000000E-01 3.7517569486000E-02
  497 4.9600000000000E-01 3.5524642025000E-02
  498 4.9700000000000E-01 3.3529386489000E-02
  499 4.9800000000000E-01 3.1531812035000E-02
  500 4.9900000000000E-01 2.9531927827000E-02
  501 5.0000000000000E-01 2.7529743037000E-02
  502 5.0100000000000E-01 2.5525266845000E-02
  503 5.0200000000000E-01 2.3518508438000E-02
  504 5.0300000000000E-01 2.1509477012000E-02
  505 5.0400000000000E-01 1.9498181771000E-02
  506 5.0500000000000E-01 1.7484631926000E-02
  507 5.0600000000000E-01 1.5468836695000E-02
  508 5.0700000000000E-01 1.3450805306000E-02
  509 5.0800000000000E-01 1.1430546991000E-02
  510 5.0900000000000E-01 9.4080709940000E-03
  511 5.1000000000000E-01 7.3833865610000E-03
  512 5.1100000000000E-01 5.3565029510000E-03
  513 5.1200000000000E-01 3.3274294260000E-03
  514 5.1300000000000E-01 1.2961752580000E-03
  515 5.1400000000000E-01 -7.3725027600000E-04
  516 5.1500000000000E-01 -2.7728378900000E-03
  517 5.1600000000000E-01 -4.8105782910000E-03
  518 5.1700000000000E-01 -6.8504621810000E-03
  519 5.1800000000000E-01 -8.8924802520000E-03
  520 5.1900000000000E-01 -1.0936623192000E-02
  521 5.2000000000000E-01 -1.2982881679000E-02
  522 5.2100000000000E-01 -1.5031246386000E-02
  523 5.2200000000000E-01 -1.7081707981000E-02
  524 5.2300000000000E-01 -1.9134257121000E-02
  525 5.2400000000000E-01 -2.1188884460000E-02
  526 5.2500000000000E-01 -2.3245580644000E-02
  527 5.2600000000000E-01 -2.5304336311000E-02
  528 5.2700000000000E-01 -2.7365142096000E-02
  529 5.2800000000000E-01 -2.9427988624000E-02
  530 5.2900000000000E-01 -3.1492866516000E-02
  531 5.3000000000000E-01 -3.3559766385000E-02
  532 5.3100000000000E-01 -3.5628678840000E-02
  533 5.3200000000000E-01 -3.7699594480000E-02
  534 5.3300000000000E-01 -3.9772503902000E-02
  535 5.3400000000000E-01 -4.1847397695000E-02
  536 5.3500000000000E-01 -4.3924266440000E-02
  537 5.3600000000000E-01 -4.6003100716000E-02
  538 5.3700000000000E-01 -4.8083891093000E-02
  539 5.3800000000000E-01 -5.0166628136000E-02
  540 5.3900000000000E-01 -5.2251302405000E-02
  541 5.4000000000000E-01 -5.4337904453000E-02
  542 5.4100000000000E-01 -5.6426424828000E-02
  543 5.4200000000000E-01 -5.8516854071000E-02
  544 5.4300000000000E-01 -6.0609182720000E-02
  545 5.4400000000000E-01 -6.2703401305000E-02
  546 5.4500000000000E-01 -6.4799500352000E-02
  547 5.4600000000000E-01 -6.6897470381000E-02
  548 5.4700000000000E-01 -6.8997301906000E-02
  549 5.4800000000000E-01 -7.1098985436000E-02
  550 5.4900000000000E-01 -7.3202511476000E-02
  551 5.5000000000000E-01 -7.5307870524000E-02
  552 5.5100000000000E-01 -7.7415053074000E-02
  553 5.5200000000000E-01 -7.9524049615000E-02
  554 5.5300000000000E-01 -8.1634850629000E-02
  555 5.5400000000000E-01 -8.3747446596000E-02
  556 5.5500000000000E-01 -8.5861827989000E-02
  557 5.5600000000000E-01 -8.7977985276000E-02
  558 5.5700000000000E-01 -9.0095908921000E-02
  559 5.5800000000000E-01 -9.2215589383000E-02
  560 5.5900000000000E-01 -9.4337017117000E-02
  561 5.6000000000000E-01 -9.6460182572000E-02
  562 5.6100000000000E-01 -9.8585076194000E-02
  563 5.6200000000000E-01 -1.0071168842200E-01
  564 5.6300000000000E-01 -1.0284000969300E-01
  565 5.6400000000000E-01 -1.0497003043900E-01
  566 5.6500000000000E-01 -1.0710174108600E-01
  567 5.6600000000000E-01 -1.0923513205800E-01
  568 5.6700000000000E-01 -1.1137019377200E-01
  569 5.6800000000000E-01 -1.1350691664500E-01
  570 5.6900000000000E-01 -1.1564529108500E-01
  571 5.7000000000000E-01 -1.1778530749900E-01
  572 5.7100000000000E-01 -1.1992695628900E-01
  573 5.7200000000000E-01 -1.2207022785300E-01
  574 5.7300000000000E-01 -1.2421511258600E-01
  575 5.7400000000000E-01 -1.2636160087700E-01
  576 5.7500000000000E-01 -1.2850968311400E-01
  577 5.7600000000000E-01 -1.3065934967900E-01
  578 5.7700000000000E-01 -1.3281059107400E-01
  579 5.7800000000000E-01 -1.3496339742500E-01
  580 5.7900000000000E-01 -1.3711775922900E-01
  581 5.8000000000000E-01 -1.3927366685700E-01
  582 5.8100000000000E-01 -1.4143111067200E-01
  583 5.8200000000000E-01 -1.4359008093300E-01
  584 5.8300000000000E-01 -1.4575056820800E-01
  585 5.8400000000000E-01 -1.4791256274400E-01
  586 5.8500000000000E-01 -1.5007605489400E-01
  587 5.8600000000000E-01 -1.5224103500500E-01
  588 5.8700000000000E-01 -1.5440749342300E-01
  589 5.8800000000000E-01 -1.5657542048900E-01
  590 5.8900000000000E-01 -1.5874480654300E-01
  591 5.9000000000000E-01 -1.6091564192100E-01
  592 5.9100000000000E-01 -1.6308791695600E-01
  593 5.9200000000000E-01 -1.6526162197800E-01
  594 5.9300000000000E-01 -1.6743674731400E-01
  595 5.9400000000000E-01 -1.6961328329000E-01
  596 5.9500000000000E-01 -1.7179122022700E-01
  597 5.9600000000000E-01 -1.7397054844600E-01
  598 5.9700000000000E-01 -1.7615125826200E-01
  599 5.9800000000000E-01 -1.7833333999000E-01
  600 5.9900000000000E-01 -1.8051678394200E-01
  601 6.0000000000000E-01 -1.8270158042700E-01
  602 6.0100000000000E-01 -1.8488771975300E-01
  603 6.0200000000000E-01 -1.8707519222500E-01
  604 6.0300000000000E-01 -1.8926398814400E-01
  605 6.0400000000000E-01 -1.9145409781200E-01
  606 6.0500000000000E-01 -1.9364551152600E-01
  607 6.0600000000000E-01 -1.9583821958300E-01
  608 6.0700000000000E-01 -1.9803221227700E-01
  609 6.0800000000000E-01 -2.0022747990100E-01
  610 6.0900000000000E-01 -2.0242401274400E-01
  611 6.1000000000000E-01 -2.0462180109500E-01
  612 6.1100000000000E-01 -2.0682083524000E-01
  613 6.1200000000000E-01 -2.0902110546600E-01
  614 6.1300000000000E-01 -2.1122260205500E-01
  615 6.1400000000000E-01 -2.1342531528800E-01
  616 6.1500000000000E-01 -2.1562923544600E-01
  617 6.1600000000000E-01 -2.1783435280800E-01
  618 6.1700000000000E-01 -2.2004065765000E-01
  619 6.1800000000000E-01 -2.2224814024900E-01
  620 6.1900000000000E-01 -2.2445679087800E-01
  621 6.2000000000000E-01 -2.2666659981200E-01
  622 6.2100000000000E-01 -2.2887755732100E-01
  623 6.2200000000000E-01 -2.3108965367700E-01
  624 6.2300000000000E-01 -2.3330287915000E-01
  625 6.2400000000000E-01 -2.3551722400700E-01
  626 6.2500000000000E-01 -2.3773267851700E-01
  627 6.2600000000000E-01 -2.3994923294500E-01
  628 6.2700000000000E-01 -2.4216687755900E-01
  629 6.2800000000000E-01 -2.4438560262200E-01
  630 6.2900000000000E-01 -2.4660539839900E-01
  631 6.3000000000000E-01 -2.4882625515400E-01
  632 6.3100000000000E-01 -2.5104816314800E-01
  633 6.3200000000000E-01 -2.5327111264500E-01
  634 6.3300000000000E-01 -2.5549509390500E-01
  635 6.3400000000000E-01 -2.5772009719000E-01
  636 6.3500000000000E-01 -2.5994611276100E-01
  637 6.3600000000000E-01 -2.6217313087700E-01
  638 6.3700000000000E-01 -2.6440114179900E-01
  639 6.3800000000000E-01 -2.6663013578700E-01
  640 6.3900000000000E-01 -2.6886010309900E-01
  641 6.4000000000000E-01 -2.7109103399500E-01
  642 6.4100000000000E-01 -2.7332291873500E-01