C     ONCVPSP-4.0.1  r_core=   0.63268   0.63268
      6.0000      6.0000      210519    zatom,zion,pspd
     8       2   1     4  2000     0    pspcod,pspxc,lmax,lloc,mmax,r2well
  5.99700000  0.00000000  0.00000000    rchrg fchrg qchrg
     2     2     0     0     0    nproj
     1     1           extension_switch
   0                        -2.5758736669076E+01 -7.1320573569914E+00
     1  0.0000000000000E+00  4.3830161722269E-11 -1.4340295617643E-10
     2  3.0000000000000E-03  9.1772739284882E-02 -3.8133834999484E-02
     3  6.0000000000000E-03  1.8343189618292E-01 -7.6171628380989E-02
     4  9.0000000000000E-03  2.7486399067664E-01 -1.1401728455220E-01
     5  1.2000000000000E-02  3.6595574824818E-01 -1.5157460300997E-01
     6  1.5000000000000E-02  4.5659420451980E-01 -1.8874723344264E-01
     7  1.8000000000000E-02  5.4666681213200E-01 -2.2543863979901E-01
     8  2.1000000000000E-02  6.3606155055294E-01 -2.6155207614271E-01
     9  2.4000000000000E-02  7.2466703946919E-01 -2.9699057696745E-01
    10  2.7000000000000E-02  8.1237265635390E-01 -3.3165696447188E-01
    11  3.0000000000000E-02  8.9906865874494E-01 -3.6545387508548E-01
    12  3.3000000000000E-02  9.8464631169335E-01 -3.9828380729963E-01
    13  3.6000000000000E-02  1.0689980207622E+00 -4.3004919259531E-01
    14  3.9000000000000E-02  1.1520174708682E+00 -4.6065249097131E-01
    15  4.2000000000000E-02  1.2335997711650E+00 -4.8999631226925E-01
    16  4.5000000000000E-02  1.3136416060681E+00 -5.1798356416617E-01
    17  4.8000000000000E-02  1.3920413924170E+00 -5.4451762736584E-01
    18  5.1000000000000E-02  1.4686994426668E+00 -5.6950255816986E-01
    19  5.4000000000000E-02  1.5435181338894E+00 -5.9284331825272E-01
    20  5.7000000000000E-02  1.6164020822594E+00 -6.1444603110475E-01
    21  6.0000000000000E-02  1.6872583225893E+00 -6.3421826424779E-01
    22  6.3000000000000E-02  1.7559964923727E+00 -6.5206933597355E-01
    23  6.6000000000000E-02  1.8225290196892E+00 -6.6791064500861E-01
    24  6.9000000000000E-02  1.8867713142290E+00 -6.8165602117557E-01
    25  7.2000000000000E-02  1.9486419605937E+00 -6.9322209480170E-01
    26  7.5000000000000E-02  2.0080629129497E+00 -7.0252868232732E-01
    27  7.8000000000000E-02  2.0649596900234E+00 -7.0949918528969E-01
    28  8.1000000000000E-02  2.1192615693567E+00 -7.1406099960685E-01
    29  8.4000000000000E-02  2.1709017796801E+00 -7.1614593186445E-01
    30  8.7000000000000E-02  2.2198176902034E+00 -7.1569061911606E-01
    31  9.0000000000000E-02  2.2659509955831E+00 -7.1263694855066E-01
    32  9.3000000000000E-02  2.3092478952950E+00 -7.0693247325757E-01
    33  9.6000000000000E-02  2.3496592661178E+00 -6.9853082023372E-01
    34  9.9000000000000E-02  2.3871408264287E+00 -6.8739208673024E-01
    35  1.0200000000000E-01  2.4216532910144E+00 -6.7348322102704E-01
    36  1.0500000000000E-01  2.4531625151198E+00 -6.5677838375444E-01
    37  1.0800000000000E-01  2.4816396264865E+00 -6.3725928595152E-01
    38  1.1100000000000E-01  2.5070611441732E+00 -6.1491550016037E-01
    39  1.1400000000000E-01  2.5294090830080E+00 -5.8974474100338E-01
    40  1.1700000000000E-01  2.5486710425859E+00 -5.6175311187625E-01
    41  1.2000000000000E-01  2.5648402798058E+00 -5.3095531461087E-01
    42  1.2300000000000E-01  2.5779157640259E+00 -4.9737481921751E-01
    43  1.2600000000000E-01  2.5879022140188E+00 -4.6104399110350E-01
    44  1.2900000000000E-01  2.5948101160137E+00 -4.2200417348173E-01
    45  1.3200000000000E-01  2.5986557222303E+00 -3.8030572302641E-01
    46  1.3500000000000E-01  2.5994610294320E+00 -3.3600799719950E-01
    47  1.3800000000000E-01  2.5972537371566E+00 -2.8917929205843E-01
    48  1.4100000000000E-01  2.5920671854199E+00 -2.3989672975876E-01
    49  1.4400000000000E-01  2.5839402718234E+00 -1.8824609538192E-01
    50  1.4700000000000E-01  2.5729173481433E+00 -1.3432162314206E-01
    51  1.5000000000000E-01  2.5590480966189E+00 -7.8225732456772E-02
    52  1.5300000000000E-01  2.5423873863048E+00 -2.0068714795855E-02
    53  1.5600000000000E-01  2.5229951099925E+00  4.0031627350398E-02
    54  1.5900000000000E-01  2.5009360023474E+00  1.0195038762259E-01
    55  1.6200000000000E-01  2.4762794400456E+00  1.6555600689485E-01
    56  1.6500000000000E-01  2.4490992248248E+00  2.3071076576816E-01
    57  1.6800000000000E-01  2.4194733504901E+00  2.9727131552100E-01
    58  1.7100000000000E-01  2.3874837550332E+00  3.6508924423457E-01
    59  1.7400000000000E-01  2.3532160591334E+00  4.3401167448646E-01
    60  1.7700000000000E-01  2.3167592924083E+00  5.0388188871432E-01
    61  1.8000000000000E-01  2.2782056088733E+00  5.7453997809003E-01
    62  1.8300000000000E-01  2.2376499931441E+00  6.4582351052048E-01
    63  1.8600000000000E-01  2.1951899589859E+00  7.1756821320439E-01
    64  1.8900000000000E-01  2.1509252418638E+00  7.8960866502698E-01
    65  1.9200000000000E-01  2.1049574871894E+00  8.6177899396959E-01
    66  1.9500000000000E-01  2.0573899359869E+00  9.3391357464753E-01
    67  1.9800000000000E-01  2.0083271097085E+00  1.0058477210712E+00
    68  2.0100000000000E-01  1.9578744959357E+00  1.0774183697490E+00
    69  2.0400000000000E-01  1.9061382366768E+00  1.1484647483210E+00
    70  2.0700000000000E-01  1.8532248209497E+00  1.2188290250217E+00
    71  2.1000000000000E-01  1.7992407832885E+00  1.2883569344280E+00
    72  2.1300000000000E-01  1.7442924097575E+00  1.3568983751437E+00
    73  2.1600000000000E-01  1.6884854529862E+00  1.4243079753057E+00
    74  2.1900000000000E-01  1.6319248576536E+00  1.4904456220754E+00
    75  2.2200000000000E-01  1.5747144977572E+00  1.5551769515835E+00
    76  2.2500000000000E-01  1.5169569268968E+00  1.6183737961401E+00
    77  2.2800000000000E-01  1.4587531426861E+00  1.6799145858928E+00
    78  2.3100000000000E-01  1.4002023662838E+00  1.7396847025127E+00
    79  2.3400000000000E-01  1.3414018379021E+00  1.7975767829065E+00
    80  2.3700000000000E-01  1.2824466290131E+00  1.8534909713928E+00
    81  2.4000000000000E-01  1.2234294718310E+00  1.9073351192307E+00
    82  2.4300000000000E-01  1.1644406064993E+00  1.9590249308542E+00
    83  2.4600000000000E-01  1.1055676462649E+00  2.0084840566320E+00
    84  2.4900000000000E-01  1.0468954607686E+00  2.0556441324429E+00
    85  2.5200000000000E-01  9.8850607743033E-01  2.1004447668247E+00
    86  2.5500000000000E-01  9.3047860076199E-01  2.1428334769139E+00
    87  2.5800000000000E-01  8.7288914929166E-01  2.1827655748385E+00
    88  2.6100000000000E-01  8.1581080964344E-01  2.2202040066622E+00
    89  2.6400000000000E-01  7.5931360718157E-01  2.2551191463855E+00
    90  2.6700000000000E-01  7.0346449249865E-01  2.2874885478981E+00
    91  2.7000000000000E-01  6.4832734290770E-01  2.3172966581364E+00
    92  2.7300000000000E-01  5.9396297798671E-01  2.3445344950248E+00
    93  2.7600000000000E-01  5.4042918812387E-01  2.3691992940758E+00
    94  2.7900000000000E-01  4.8778077492201E-01  2.3912941277761E+00
    95  2.8200000000000E-01  4.3606960224388E-01  2.4108275021021E+00
    96  2.8500000000000E-01  3.8534465661525E-01  2.4278129346810E+00
    97  2.8800000000000E-01  3.3565211565175E-01  2.4422685192419E+00
    98  2.9100000000000E-01  2.8703542313836E-01  2.4542164810842E+00
    99  2.9400000000000E-01  2.3953536936735E-01  2.4636827283285E+00
   100  2.9700000000000E-01  1.9319017533190E-01  2.4706964037037E+00
   101  3.0000000000000E-01  1.4803557937841E-01  2.4752894415688E+00
   102  3.0300000000000E-01  1.0410492494076E-01  2.4774961347635E+00
   103  3.0600000000000E-01  6.1429248013898E-02  2.4773527157338E+00
   104  3.0900000000000E-01  2.0037363072313E-02  2.4748969561847E+00
   105  3.1200000000000E-01 -2.0044053800030E-02  2.4701677892794E+00
   106  3.1500000000000E-01 -5.8790385727679E-02  2.4632049581253E+00
   107  3.1800000000000E-01 -9.6179000883398E-02  2.4540486939773E+00
   108  3.2100000000000E-01 -1.3218918432679E-01  2.4427394272378E+00
   109  3.2400000000000E-01 -1.6680207671215E-01  2.4293175339570E+00
   110  3.2700000000000E-01 -2.0000062062072E-01  2.4138231201264E+00
   111  3.3000000000000E-01 -2.3176951514869E-01  2.3962958456294E+00
   112  3.3300000000000E-01 -2.6209517925321E-01  2.3767747892624E+00
   113  3.3600000000000E-01 -2.9096572422308E-01  2.3552983557721E+00
   114  3.3900000000000E-01 -3.1837093550270E-01  2.3319042253789E+00
   115  3.4200000000000E-01 -3.4430226395648E-01  2.3066293457728E+00
   116  3.4500000000000E-01 -3.6875282651912E-01  2.2795099660847E+00
   117  3.4800000000000E-01 -3.9171741603578E-01  2.2505817118517E+00
   118  3.5100000000000E-01 -4.1319251995680E-01  2.2198796995271E+00
   119  3.5400000000000E-01 -4.3317634741566E-01  2.1874386886203E+00
   120  3.5700000000000E-01 -4.5166886408805E-01  2.1532932691140E+00
   121  3.6000000000000E-01 -4.6867183410496E-01  2.1174780813814E+00
   122  3.6300000000000E-01 -4.8418886817569E-01  2.0800280654354E+00
   123  3.6600000000000E-01 -4.9822547696828E-01  2.0409787359762E+00
   124  3.6900000000000E-01 -5.1078912869667E-01  2.0003664793731E+00
   125  3.7200000000000E-01 -5.2188930977651E-01  1.9582288684276E+00
   126  3.7500000000000E-01 -5.3153758733664E-01  1.9146049905098E+00
   127  3.7800000000000E-01 -5.3974767231083E-01  1.8695357844560E+00
   128  3.8100000000000E-01 -5.4653548178603E-01  1.8230643814512E+00
   129  3.8400000000000E-01 -5.5191919924910E-01  1.7752364450090E+00
   130  3.8700000000000E-01 -5.5591933135446E-01  1.7261005050953E+00
   131  3.9000000000000E-01 -5.5855875983079E-01  1.6757082814293E+00
   132  3.9300000000000E-01 -5.5986278715584E-01  1.6241149910332E+00
   133  3.9600000000000E-01 -5.5985917465469E-01  1.5713796351891E+00
   134  3.9900000000000E-01 -5.5857817171792E-01  1.5175652611010E+00
   135  4.0200000000000E-01 -5.5605253489301E-01  1.4627391937510E+00
   136  4.0500000000000E-01 -5.5231753567290E-01  1.4069732336703E+00
   137  4.0800000000000E-01 -5.4741095589049E-01  1.3503438166365E+00
   138  4.1100000000000E-01 -5.4137306972614E-01  1.2929321316293E+00
   139  4.1400000000000E-01 -5.3424661144581E-01  1.2348241937516E+00
   140  4.1700000000000E-01 -5.2607672810970E-01  1.1761108692263E+00
   141  4.2000000000000E-01 -5.1691091662340E-01  1.1168878500237E+00
   142  4.2300000000000E-01 -5.0679894464550E-01  1.0572555761438E+00
   143  4.2600000000000E-01 -4.9579275501549E-01  9.9731910408194E-01
   144  4.2900000000000E-01 -4.8394635352142E-01  9.3718792052082E-01
   145  4.3200000000000E-01 -4.7131567998868E-01  8.7697570083553E-01
   146  4.3500000000000E-01 -4.5795846283578E-01  8.1680001254531E-01
   147  4.3800000000000E-01 -4.4393405740984E-01  7.5678196440326E-01
   148  4.4100000000000E-01 -4.2930326858235E-01  6.9704580237570E-01
   149  4.4400000000000E-01 -4.1412815825148E-01  6.3771845431695E-01
   150  4.4700000000000E-01 -3.9847183856073E-01  5.7892902569255E-01
   151  4.5000000000000E-01 -3.8239825180283E-01  5.2080824923627E-01
   152  4.5300000000000E-01 -3.6597193813053E-01  4.6348789193989E-01
   153  4.5600000000000E-01 -3.4925779234179E-01  4.0710012326339E-01
   154  4.5900000000000E-01 -3.3232081114286E-01  3.5177684891288E-01
   155  4.6200000000000E-01 -3.1522583241943E-01  2.9764901496033E-01
   156  4.6500000000000E-01 -2.9803726816010E-01  2.4484588746659E-01
   157  4.6800000000000E-01 -2.8081883277765E-01  1.9349431311475E-01
   158  4.7100000000000E-01 -2.6363326866150E-01  1.4371796666156E-01
   159  4.7400000000000E-01 -2.4654207086652E-01  9.5636591264801E-02
   160  4.7700000000000E-01 -2.2960521290003E-01  4.9365237943973E-02
   161  4.8000000000000E-01 -2.1288087560860E-01  5.0135105760863E-03
   162  4.8300000000000E-01 -1.9642518118845E-01 -3.7315177083157E-02
   163  4.8600000000000E-01 -1.8029193434860E-01 -7.7524325831733E-02
   164  4.8900000000000E-01 -1.6453237264234E-01 -1.1552505041377E-01
   165  4.9200000000000E-01 -1.4919492795207E-01 -1.5123674746532E-01
   166  4.9500000000000E-01 -1.3432500106294E-01 -1.8458772575190E-01
   167  4.9800000000000E-01 -1.1996475119467E-01 -2.1551579263928E-01
   168  5.0100000000000E-01 -1.0615290227622E-01 -2.4396879099941E-01
   169  5.0400000000000E-01 -9.2924567647491E-02 -2.6990508106774E-01
   170  5.0700000000000E-01 -8.0311094755284E-02 -2.9329396213625E-01
   171  5.1000000000000E-01 -6.8339931278480E-02 -3.1411602938381E-01
   172  5.1300000000000E-01 -5.7034513971143E-02 -3.3236346160952E-01
   173  5.1600000000000E-01 -4.6414181352848E-02 -3.4804023614204E-01
   174  5.1900000000000E-01 -3.6494111204292E-02 -3.6116226774367E-01
   175  5.2200000000000E-01 -2.7285283644712E-02 -3.7175746890833E-01
   176  5.2500000000000E-01 -1.8794470377007E-02 -3.7986572956235E-01
   177  5.2800000000000E-01 -1.1024250488730E-02 -3.8553881481141E-01
   178  5.3100000000000E-01 -3.9730529933990E-03 -3.8884018003018E-01
   179  5.3400000000000E-01  2.3647739107216E-03 -3.8984470325779E-01
   180  5.3700000000000E-01  7.9988670970935E-03 -3.8863833553730E-01
   181  5.4000000000000E-01  1.2942726725333E-02 -3.8531767051297E-01
   182  5.4300000000000E-01  1.7213569064984E-02 -3.7998943527226E-01
   183  5.4600000000000E-01  2.0832154785433E-02 -3.7276990508132E-01
   184  5.4900000000000E-01  2.3822593769144E-02 -3.6378424530998E-01
   185  5.5200000000000E-01  2.6212127698952E-02 -3.5316578446706E-01
   186  5.5500000000000E-01  2.8030891855159E-02 -3.4105522286547E-01
   187  5.5800000000000E-01  2.9311657733091E-02 -3.2759978200185E-01
   188  5.6100000000000E-01  3.0089558254668E-02 -3.1295230026365E-01
   189  5.6400000000000E-01  3.0401797498517E-02 -2.9727028106580E-01
   190  5.6700000000000E-01  3.0287347005571E-02 -2.8071489994876E-01
   191  5.7000000000000E-01  2.9786630840449E-02 -2.6344997757112E-01
   192  5.7300000000000E-01  2.8941201688394E-02 -2.4564092585365E-01
   193  5.7600000000000E-01  2.7793410353224E-02 -2.2745367481177E-01
   194  5.7900000000000E-01  2.6386071087303E-02 -2.0905358782842E-01
   195  5.8200000000000E-01  2.4762125230820E-02 -1.9060437327226E-01
   196  5.8500000000000E-01  2.2964305664222E-02 -1.7226700045594E-01
   197  5.8800000000000E-01  2.1034804583056E-02 -1.5419862795023E-01
   198  5.9100000000000E-01  1.9014941814024E-02 -1.3655153525527E-01
   199  5.9400000000000E-01  1.6944890825899E-02 -1.1947224093695E-01
   200  5.9700000000000E-01  1.4863236385416E-02 -1.0310008773503E-01
   201  6.0000000000000E-01  1.2806856119561E-02 -8.7566840323278E-02
   202  6.0300000000000E-01  1.0812781494556E-02 -7.3002726253586E-02
   203  6.0600000000000E-01  8.9190783754397E-03 -5.9539421227881E-02
   204  6.0900000000000E-01  7.1537130046604E-03 -4.7274179259334E-02
   205  6.1200000000000E-01  5.5409583255110E-03 -3.6290185994157E-02
   206  6.1500000000000E-01  4.1028673924024E-03 -2.6661290884177E-02
   207  6.1800000000000E-01  2.8586073187605E-03 -1.8449936527416E-02
   208  6.2100000000000E-01  1.8243820657321E-03 -1.1706946223605E-02
   209  6.2400000000000E-01  1.0136899837157E-03 -6.4736029099401E-03
   210  6.2700000000000E-01  4.3262807541770E-04 -2.7523560210401E-03
   211  6.3000000000000E-01  1.0264576302102E-04 -6.5101373530439E-04
   212  6.3300000000000E-01 -4.0703467319927E-06  2.5768236436769E-05
   213  6.3600000000000E-01 -2.5001075199153E-06  1.5797698864251E-05
   214  0.6390  0. -0.
   215  0.6420 -0.  0.
   216  0.6450 -0.  0.
   217  0.6480  0.  0.
   218  0.6510  0.  0.
   219  0.6540  0.  0.
   220  0.6570  0.  0.
   221  0.6600  0.  0.
   222  0.6630  0.  0.
   223  0.6660  0.  0.
   224  0.6690  0.  0.
   225  0.6720  0.  0.
   226  0.6750  0.  0.
   227  0.6780  0.  0.
   228  0.6810  0.  0.
   229  0.6840  0.  0.
   230  0.6870  0.  0.
   231  0.6900  0.  0.
   232  0.6930  0.  0.
   233  0.6960  0.  0.
   234  0.6990  0.  0.
   235  0.7020  0.  0.
   236  0.7050  0.  0.
   237  0.7080  0.  0.
   238  0.7110  0.  0.
   239  0.7140  0.  0.
   240  0.7170  0.  0.
   241  0.7200  0.  0.
   242  0.7230  0.  0.
   243  0.7260  0.  0.
   244  0.7290  0.  0.
   245  0.7320  0.  0.
   246  0.7350  0.  0.
   247  0.7380  0.  0.
   248  0.7410  0.  0.
   249  0.7440  0.  0.
   250  0.7470  0.  0.
   251  0.7500  0.  0.
   252  0.7530  0.  0.
   253  0.7560  0.  0.
   254  0.7590  0.  0.
   255  0.7620  0.  0.
   256  0.7650  0.  0.
   257  0.7680  0.  0.
   258  0.7710  0.  0.
   259  0.7740  0.  0.
   260  0.7770  0.  0.
   261  0.7800  0.  0.
   262  0.7830  0.  0.
   263  0.7860  0.  0.
   264  0.7890  0.  0.
   265  0.7920  0.  0.
   266  0.7950  0.  0.
   267  0.7980  0.  0.
   268  0.8010  0.  0.
   269  0.8040  0.  0.
   270  0.8070  0.  0.
   271  0.8100  0.  0.
   272  0.8130  0.  0.
   273  0.8160  0.  0.
   274  0.8190  0.  0.
   275  0.8220  0.  0.
   276  0.8250  0.  0.
   277  0.8280  0.  0.
   278  0.8310  0.  0.
   279  0.8340  0.  0.
   280  0.8370  0.  0.
   281  0.8400  0.  0.
   282  0.8430  0.  0.
   283  0.8460  0.  0.
   284  0.8490  0.  0.
   285  0.8520  0.  0.
   286  0.8550  0.  0.
   287  0.8580  0.  0.
   288  0.8610  0.  0.
   289  0.8640  0.  0.
   290  0.8670  0.  0.
   291  0.8700  0.  0.
   292  0.8730  0.  0.
   293  0.8760  0.  0.
   294  0.8790  0.  0.
   295  0.8820  0.  0.
   296  0.8850  0.  0.
   297  0.8880  0.  0.
   298  0.8910  0.  0.
   299  0.8940  0.  0.
   300  0.8970  0.  0.
   301  0.9000  0.  0.
   302  0.9030  0.  0.
   303  0.9060  0.  0.
   304  0.9090  0.  0.
   305  0.9120  0.  0.
   306  0.9150  0.  0.
   307  0.9180  0.  0.
   308  0.9210  0.  0.
   309  0.9240  0.  0.
   310  0.9270  0.  0.
   311  0.9300  0.  0.
   312  0.9330  0.  0.
   313  0.9360  0.  0.
   314  0.9390  0.  0.
   315  0.9420  0.  0.
   316  0.9450  0.  0.
   317  0.9480  0.  0.
   318  0.9510  0.  0.
   319  0.9540  0.  0.
   320  0.9570  0.  0.
   321  0.9600  0.  0.
   322  0.9630  0.  0.
   323  0.9660  0.  0.
   324  0.9690  0.  0.
   325  0.9720  0.  0.
   326  0.9750  0.  0.
   327  0.9780  0.  0.
   328  0.9810  0.  0.
   329  0.9840  0.  0.
   330  0.9870  0.  0.
   331  0.9900  0.  0.
   332  0.9930  0.  0.
   333  0.9960  0.  0.
   334  0.9990  0.  0.
   335  1.0020  0.  0.
   336  1.0050  0.  0.
   337  1.0080  0.  0.
   338  1.0110  0.  0.
   339  1.0140  0.  0.
   340  1.0170  0.  0.
   341  1.0200  0.  0.
   342  1.0230  0.  0.
   343  1.0260  0.  0.
   344  1.0290  0.  0.
   345  1.0320  0.  0.
   346  1.0350  0.  0.
   347  1.0380  0.  0.
   348  1.0410  0.  0.
   349  1.0440  0.  0.
   350  1.0470  0.  0.
   351  1.0500  0.  0.
   352  1.0530  0.  0.
   353  1.0560  0.  0.
   354  1.0590  0.  0.
   355  1.0620  0.  0.
   356  1.0650  0.  0.
   357  1.0680  0.  0.
   358  1.0710  0.  0.
   359  1.0740  0.  0.
   360  1.0770  0.  0.
   361  1.0800  0.  0.
   362  1.0830  0.  0.
   363  1.0860  0.  0.
   364  1.0890  0.  0.
   365  1.0920  0.  0.
   366  1.0950  0.  0.
   367  1.0980  0.  0.
   368  1.1010  0.  0.
   369  1.1040  0.  0.
   370  1.1070  0.  0.
   371  1.1100  0.  0.
   372  1.1130  0.  0.
   373  1.1160  0.  0.
   374  1.1190  0.  0.
   375  1.1220  0.  0.
   376  1.1250  0.  0.
   377  1.1280  0.  0.
   378  1.1310  0.  0.
   379  1.1340  0.  0.
   380  1.1370  0.  0.
   381  1.1400  0.  0.
   382  1.1430  0.  0.
   383  1.1460  0.  0.
   384  1.1490  0.  0.
   385  1.1520  0.  0.
   386  1.1550  0.  0.
   387  1.1580  0.  0.
   388  1.1610  0.  0.
   389  1.1640  0.  0.
   390  1.1670  0.  0.
   391  1.1700  0.  0.
   392  1.1730  0.  0.
   393  1.1760  0.  0.
   394  1.1790  0.  0.
   395  1.1820  0.  0.
   396  1.1850  0.  0.
   397  1.1880  0.  0.
   398  1.1910  0.  0.
   399  1.1940  0.  0.
   400  1.1970  0.  0.
   401  1.2000  0.  0.
   402  1.2030  0.  0.
   403  1.2060  0.  0.
   404  1.2090  0.  0.
   405  1.2120  0.  0.
   406  1.2150  0.  0.
   407  1.2180  0.  0.
   408  1.2210  0.  0.
   409  1.2240  0.  0.
   410  1.2270  0.  0.
   411  1.2300  0.  0.
   412  1.2330  0.  0.
   413  1.2360  0.  0.
   414  1.2390  0.  0.
   415  1.2420  0.  0.
   416  1.2450  0.  0.
   417  1.2480  0.  0.
   418  1.2510  0.  0.
   419  1.2540  0.  0.
   420  1.2570  0.  0.
   421  1.2600  0.  0.
   422  1.2630  0.  0.
   423  1.2660  0.  0.
   424  1.2690  0.  0.
   425  1.2720  0.  0.
   426  1.2750  0.  0.
   427  1.2780  0.  0.
   428  1.2810  0.  0.
   429  1.2840  0.  0.
   430  1.2870  0.  0.
   431  1.2900  0.  0.
   432  1.2930  0.  0.
   433  1.2960  0.  0.
   434  1.2990  0.  0.
   435  1.3020  0.  0.
   436  1.3050  0.  0.
   437  1.3080  0.  0.
   438  1.3110  0.  0.
   439  1.3140  0.  0.
   440  1.3170  0.  0.
   441  1.3200  0.  0.
   442  1.3230  0.  0.
   443  1.3260  0.  0.
   444  1.3290  0.  0.
   445  1.3320  0.  0.
   446  1.3350  0.  0.
   447  1.3380  0.  0.
   448  1.3410  0.  0.
   449  1.3440  0.  0.
   450  1.3470  0.  0.
   451  1.3500  0.  0.
   452  1.3530  0.  0.
   453  1.3560  0.  0.
   454  1.3590  0.  0.
   455  1.3620  0.  0.
   456  1.3650  0.  0.
   457  1.3680  0.  0.
   458  1.3710  0.  0.
   459  1.3740  0.  0.
   460  1.3770  0.  0.
   461  1.3800  0.  0.
   462  1.3830  0.  0.
   463  1.3860  0.  0.
   464  1.3890  0.  0.
   465  1.3920  0.  0.
   466  1.3950  0.  0.
   467  1.3980  0.  0.
   468  1.4010  0.  0.
   469  1.4040  0.  0.
   470  1.4070  0.  0.
   471  1.4100  0.  0.
   472  1.4130  0.  0.
   473  1.4160  0.  0.
   474  1.4190  0.  0.
   475  1.4220  0.  0.
   476  1.4250  0.  0.
   477  1.4280  0.  0.
   478  1.4310  0.  0.
   479  1.4340  0.  0.
   480  1.4370  0.  0.
   481  1.4400  0.  0.
   482  1.4430  0.  0.
   483  1.4460  0.  0.
   484  1.4490  0.  0.
   485  1.4520  0.  0.
   486  1.4550  0.  0.
   487  1.4580  0.  0.
   488  1.4610  0.  0.
   489  1.4640  0.  0.
   490  1.4670  0.  0.
   491  1.4700  0.  0.
   492  1.4730  0.  0.
   493  1.4760  0.  0.
   494  1.4790  0.  0.
   495  1.4820  0.  0.
   496  1.4850  0.  0.
   497  1.4880  0.  0.
   498  1.4910  0.  0.
   499  1.4940  0.  0.
   500  1.4970  0.  0.
   501  1.5000  0.  0.
   502  1.5030  0.  0.
   503  1.5060  0.  0.
   504  1.5090  0.  0.
   505  1.5120  0.  0.
   506  1.5150  0.  0.
   507  1.5180  0.  0.
   508  1.5210  0.  0.
   509  1.5240  0.  0.
   510  1.5270  0.  0.
   511  1.5300  0.  0.
   512  1.5330  0.  0.
   513  1.5360  0.  0.
   514  1.5390  0.  0.
   515  1.5420  0.  0.
   516  1.5450  0.  0.
   517  1.5480  0.  0.
   518  1.5510  0.  0.
   519  1.5540  0.  0.
   520  1.5570  0.  0.
   521  1.5600  0.  0.
   522  1.5630  0.  0.
   523  1.5660  0.  0.
   524  1.5690  0.  0.
   525  1.5720  0.  0.
   526  1.5750  0.  0.
   527  1.5780  0.  0.
   528  1.5810  0.  0.
   529  1.5840  0.  0.
   530  1.5870  0.  0.
   531  1.5900  0.  0.
   532  1.5930  0.  0.
   533  1.5960  0.  0.
   534  1.5990  0.  0.
   535  1.6020  0.  0.
   536  1.6050  0.  0.
   537  1.6080  0.  0.
   538  1.6110  0.  0.
   539  1.6140  0.  0.
   540  1.6170  0.  0.
   541  1.6200  0.  0.
   542  1.6230  0.  0.
   543  1.6260  0.  0.
   544  1.6290  0.  0.
   545  1.6320  0.  0.
   546  1.6350  0.  0.
   547  1.6380  0.  0.
   548  1.6410  0.  0.
   549  1.6440  0.  0.
   550  1.6470  0.  0.
   551  1.6500  0.  0.
   552  1.6530  0.  0.
   553  1.6560  0.  0.
   554  1.6590  0.  0.
   555  1.6620  0.  0.
   556  1.6650  0.  0.
   557  1.6680  0.  0.
   558  1.6710  0.  0.
   559  1.6740  0.  0.
   560  1.6770  0.  0.
   561  1.6800  0.  0.
   562  1.6830  0.  0.
   563  1.6860  0.  0.
   564  1.6890  0.  0.
   565  1.6920  0.  0.
   566  1.6950  0.  0.
   567  1.6980  0.  0.
   568  1.7010  0.  0.
   569  1.7040  0.  0.
   570  1.7070  0.  0.
   571  1.7100  0.  0.
   572  1.7130  0.  0.
   573  1.7160  0.  0.
   574  1.7190  0.  0.
   575  1.7220  0.  0.
   576  1.7250  0.  0.
   577  1.7280  0.  0.
   578  1.7310  0.  0.
   579  1.7340  0.  0.
   580  1.7370  0.  0.
   581  1.7400  0.  0.
   582  1.7430  0.  0.
   583  1.7460  0.  0.
   584  1.7490  0.  0.
   585  1.7520  0.  0.
   586  1.7550  0.  0.
   587  1.7580  0.  0.
   588  1.7610  0.  0.
   589  1.7640  0.  0.
   590  1.7670  0.  0.
   591  1.7700  0.  0.
   592  1.7730  0.  0.
   593  1.7760  0.  0.
   594  1.7790  0.  0.
   595  1.7820  0.  0.
   596  1.7850  0.  0.
   597  1.7880  0.  0.
   598  1.7910  0.  0.
   599  1.7940  0.  0.
   600  1.7970  0.  0.
   601  1.8000  0.  0.
   602  1.8030  0.  0.
   603  1.8060  0.  0.
   604  1.8090  0.  0.
   605  1.8120  0.  0.
   606  1.8150  0.  0.
   607  1.8180  0.  0.
   608  1.8210  0.  0.
   609  1.8240  0.  0.
   610  1.8270  0.  0.
   611  1.8300  0.  0.
   612  1.8330  0.  0.
   613  1.8360  0.  0.
   614  1.8390  0.  0.
   615  1.8420  0.  0.
   616  1.8450  0.  0.
   617  1.8480  0.  0.
   618  1.8510  0.  0.
   619  1.8540  0.  0.
   620  1.8570  0.  0.
   621  1.8600  0.  0.
   622  1.8630  0.  0.
   623  1.8660  0.  0.
   624  1.8690  0.  0.
   625  1.8720  0.  0.
   626  1.8750  0.  0.
   627  1.8780  0.  0.
   628  1.8810  0.  0.
   629  1.8840  0.  0.
   630  1.8870  0.  0.
   631  1.8900  0.  0.
   632  1.8930  0.  0.
   633  1.8960  0.  0.
   634  1.8990  0.  0.
   635  1.9020  0.  0.
   636  1.9050  0.  0.
   637  1.9080  0.  0.
   638  1.9110  0.  0.
   639  1.9140  0.  0.
   640  1.9170  0.  0.
   641  1.9200  0.  0.
   642  1.9230  0.  0.
   643  1.9260  0.  0.
   644  1.9290  0.  0.
   645  1.9320  0.  0.
   646  1.9350  0.  0.
   647  1.9380  0.  0.
   648  1.9410  0.  0.
   649  1.9440  0.  0.
   650  1.9470  0.  0.
   651  1.9500  0.  0.
   652  1.9530  0.  0.
   653  1.9560  0.  0.
   654  1.9590  0.  0.
   655  1.9620  0.  0.
   656  1.9650  0.  0.
   657  1.9680  0.  0.
   658  1.9710  0.  0.
   659  1.9740  0.  0.
   660  1.9770  0.  0.
   661  1.9800  0.  0.
   662  1.9830  0.  0.
   663  1.9860  0.  0.
   664  1.9890  0.  0.
   665  1.9920  0.  0.
   666  1.9950  0.  0.
   667  1.9980  0.  0.
   668  2.0010  0.  0.
   669  2.0040  0.  0.
   670  2.0070  0.  0.
   671  2.0100  0.  0.
   672  2.0130  0.  0.
   673  2.0160  0.  0.
   674  2.0190  0.  0.
   675  2.0220  0.  0.
   676  2.0250  0.  0.
   677  2.0280  0.  0.
   678  2.0310  0.  0.
   679  2.0340  0.  0.
   680  2.0370  0.  0.
   681  2.0400  0.  0.
   682  2.0430  0.  0.
   683  2.0460  0.  0.
   684  2.0490  0.  0.
   685  2.0520  0.  0.
   686  2.0550  0.  0.
   687  2.0580  0.  0.
   688  2.0610  0.  0.
   689  2.0640  0.  0.
   690  2.0670  0.  0.
   691  2.0700  0.  0.
   692  2.0730  0.  0.
   693  2.0760  0.  0.
   694  2.0790  0.  0.
   695  2.0820  0.  0.
   696  2.0850  0.  0.
   697  2.0880  0.  0.
   698  2.0910  0.  0.
   699  2.0940  0.  0.
   700  2.0970  0.  0.
   701  2.1000  0.  0.
   702  2.1030  0.  0.
   703  2.1060  0.  0.
   704  2.1090  0.  0.
   705  2.1120  0.  0.
   706  2.1150  0.  0.
   707  2.1180  0.  0.
   708  2.1210  0.  0.
   709  2.1240  0.  0.
   710  2.1270  0.  0.
   711  2.1300  0.  0.
   712  2.1330  0.  0.
   713  2.1360  0.  0.
   714  2.1390  0.  0.
   715  2.1420  0.  0.
   716  2.1450  0.  0.
   717  2.1480  0.  0.
   718  2.1510  0.  0.
   719  2.1540  0.  0.
   720  2.1570  0.  0.
   721  2.1600  0.  0.
   722  2.1630  0.  0.
   723  2.1660  0.  0.
   724  2.1690  0.  0.
   725  2.1720  0.  0.
   726  2.1750  0.  0.
   727  2.1780  0.  0.
   728  2.1810  0.  0.
   729  2.1840  0.  0.
   730  2.1870  0.  0.
   731  2.1900  0.  0.
   732  2.1930  0.  0.
   733  2.1960  0.  0.
   734  2.1990  0.  0.
   735  2.2020  0.  0.
   736  2.2050  0.  0.
   737  2.2080  0.  0.
   738  2.2110  0.  0.
   739  2.2140  0.  0.
   740  2.2170  0.  0.
   741  2.2200  0.  0.
   742  2.2230  0.  0.
   743  2.2260  0.  0.
   744  2.2290  0.  0.
   745  2.2320  0.  0.
   746  2.2350  0.  0.
   747  2.2380  0.  0.
   748  2.2410  0.  0.
   749  2.2440  0.  0.
   750  2.2470  0.  0.
   751  2.2500  0.  0.
   752  2.2530  0.  0.
   753  2.2560  0.  0.
   754  2.2590  0.  0.
   755  2.2620  0.  0.
   756  2.2650  0.  0.
   757  2.2680  0.  0.
   758  2.2710  0.  0.
   759  2.2740  0.  0.
   760  2.2770  0.  0.
   761  2.2800  0.  0.
   762  2.2830  0.  0.
   763  2.2860  0.  0.
   764  2.2890  0.  0.
   765  2.2920  0.  0.
   766  2.2950  0.  0.
   767  2.2980  0.  0.
   768  2.3010  0.  0.
   769  2.3040  0.  0.
   770  2.3070  0.  0.
   771  2.3100  0.  0.
   772  2.3130  0.  0.
   773  2.3160  0.  0.
   774  2.3190  0.  0.
   775  2.3220  0.  0.
   776  2.3250  0.  0.
   777  2.3280  0.  0.
   778  2.3310  0.  0.
   779  2.3340  0.  0.
   780  2.3370  0.  0.
   781  2.3400  0.  0.
   782  2.3430  0.  0.
   783  2.3460  0.  0.
   784  2.3490  0.  0.
   785  2.3520  0.  0.
   786  2.3550  0.  0.
   787  2.3580  0.  0.
   788  2.3610  0.  0.
   789  2.3640  0.  0.
   790  2.3670  0.  0.
   791  2.3700  0.  0.
   792  2.3730  0.  0.
   793  2.3760  0.  0.
   794  2.3790  0.  0.
   795  2.3820  0.  0.
   796  2.3850  0.  0.
   797  2.3880  0.  0.
   798  2.3910  0.  0.
   799  2.3940  0.  0.
   800  2.3970  0.  0.
   801  2.4000  0.  0.
   802  2.4030  0.  0.
   803  2.4060  0.  0.
   804  2.4090  0.  0.
   805  2.4120  0.  0.
   806  2.4150  0.  0.
   807  2.4180  0.  0.
   808  2.4210  0.  0.
   809  2.4240  0.  0.
   810  2.4270  0.  0.
   811  2.4300  0.  0.
   812  2.4330  0.  0.
   813  2.4360  0.  0.
   814  2.4390  0.  0.
   815  2.4420  0.  0.
   816  2.4450  0.  0.
   817  2.4480  0.  0.
   818  2.4510  0.  0.
   819  2.4540  0.  0.
   820  2.4570  0.  0.
   821  2.4600  0.  0.
   822  2.4630  0.  0.
   823  2.4660  0.  0.
   824  2.4690  0.  0.
   825  2.4720  0.  0.
   826  2.4750  0.  0.
   827  2.4780  0.  0.
   828  2.4810  0.  0.
   829  2.4840  0.  0.
   830  2.4870  0.  0.
   831  2.4900  0.  0.
   832  2.4930  0.  0.
   833  2.4960  0.  0.
   834  2.4990  0.  0.
   835  2.5020  0.  0.
   836  2.5050  0.  0.
   837  2.5080  0.  0.
   838  2.5110  0.  0.
   839  2.5140  0.  0.
   840  2.5170  0.  0.
   841  2.5200  0.  0.
   842  2.5230  0.  0.
   843  2.5260  0.  0.
   844  2.5290  0.  0.
   845  2.5320  0.  0.
   846  2.5350  0.  0.
   847  2.5380  0.  0.
   848  2.5410  0.  0.
   849  2.5440  0.  0.
   850  2.5470  0.  0.
   851  2.5500  0.  0.
   852  2.5530  0.  0.