Ba    ONCVPSP-4.0.1  r_core=   2.94370   2.92614   2.96136   2.53480
     56.0000     10.0000      200312    zatom,zion,pspd
     8       2   3     4   600     0    pspcod,pspxc,lmax,lloc,mmax,r2well
  5.99000000  0.00000000  0.00000000    rchrg fchrg qchrg
     2     2     2     2     0    nproj
     1     1           extension_switch
   0                         3.6376799250455E+00  4.5903052029715E-01
     1  0.0000000000000E+00 -1.7460755064036E-12  5.3828330681682E-12
     2  1.0000000000000E-02  3.0639771642836E-02 -9.6358028238981E-03
     3  2.0000000000000E-02  6.1257813073733E-02 -1.9248992961993E-02
     4  3.0000000000000E-02  9.1832421976395E-02 -2.8817017628641E-02
     5  4.0000000000000E-02  1.2234195173480E-01 -3.8317443570049E-02
     6  5.0000000000000E-02  1.5276483905631E-01 -4.7728016160398E-02
     7  6.0000000000000E-02  1.8307963132344E-01 -5.7026717698010E-02
     8  7.0000000000000E-02  2.1326501358617E-01 -6.6191824641203E-02
     9  8.0000000000000E-02  2.4329983510796E-01 -7.5201963528883E-02
    10  9.0000000000000E-02  2.7316313538105E-01 -8.4036165337580E-02
    11  1.0000000000000E-01  3.0283416952941E-01 -9.2673918034524E-02
    12  1.1000000000000E-01  3.3229243302009E-01 -1.0109521709558E-01
    13  1.2000000000000E-01  3.6151768560778E-01 -1.0928061376716E-01
    14  1.3000000000000E-01  3.9048997444046E-01 -1.1721126086257E-01
    15  1.4000000000000E-01  4.1918965625876E-01 -1.2486895589607E-01
    16  1.5000000000000E-01  4.4759741862530E-01 -1.3223618137111E-01
    17  1.6000000000000E-01  4.7569430012577E-01 -1.3929614205397E-01
    18  1.7000000000000E-01  5.0346170948786E-01 -1.4603279907915E-01
    19  1.8000000000000E-01  5.3088144356976E-01 -1.5243090074928E-01
    20  1.9000000000000E-01  5.5793570417536E-01 -1.5847600990893E-01
    21  2.0000000000000E-01  5.8460711365894E-01 -1.6415452778928E-01
    22  2.1000000000000E-01  6.1087872928796E-01 -1.6945371423879E-01
    23  2.2000000000000E-01  6.3673405633877E-01 -1.7436170427335E-01
    24  2.3000000000000E-01  6.6215705990593E-01 -1.7886752089829E-01
    25  2.4000000000000E-01  6.8713217541229E-01 -1.8296108417386E-01
    26  2.5000000000000E-01  7.1164431781314E-01 -1.8663321651505E-01
    27  2.6000000000000E-01  7.3567888949409E-01 -1.8987564423594E-01
    28  2.7000000000000E-01  7.5922178686858E-01 -1.9268099536842E-01
    29  2.8000000000000E-01  7.8225940568736E-01 -1.9504279380390E-01
    30  2.9000000000000E-01  8.0477864507817E-01 -1.9695544982630E-01
    31  3.0000000000000E-01  8.2676691034035E-01 -1.9841424712275E-01
    32  3.1000000000000E-01  8.4821211452465E-01 -1.9941532637719E-01
    33  3.2000000000000E-01  8.6910267883466E-01 -1.9995566556972E-01
    34  3.3000000000000E-01  8.8942753189164E-01 -2.0003305712161E-01
    35  3.4000000000000E-01  9.0917610791006E-01 -1.9964608204298E-01
    36  3.5000000000000E-01  9.2833834383630E-01 -1.9879408125515E-01
    37  3.6000000000000E-01  9.4690467550761E-01 -1.9747712427539E-01
    38  3.7000000000000E-01  9.6486603289331E-01 -1.9569597546527E-01
    39  3.8000000000000E-01  9.8221383448418E-01 -1.9345205805682E-01
    40  3.9000000000000E-01  9.9893998089992E-01 -1.9074741618311E-01
    41  4.0000000000000E-01  1.0150368477882E+00 -1.8758467514992E-01
    42  4.1000000000000E-01  1.0304972780915E+00 -1.8396700019534E-01
    43  4.2000000000000E-01  1.0453145737617E+00 -1.7989805399200E-01
    44  4.3000000000000E-01  1.0594824870029E+00 -1.7538195315394E-01
    45  4.4000000000000E-01  1.0729952111266E+00 -1.7042322401559E-01
    46  4.5000000000000E-01  1.0858473711035E+00 -1.6502675795453E-01
    47  4.6000000000000E-01  1.0980340138976E+00 -1.5919776653285E-01
    48  4.7000000000000E-01  1.1095505986693E+00 -1.5294173673285E-01
    49  4.8000000000000E-01  1.1203929869322E+00 -1.4626438656305E-01
    50  4.9000000000000E-01  1.1305574327507E+00 -1.3917162130910E-01
    51  5.0000000000000E-01  1.1400405730615E+00 -1.3166949070057E-01
    52  5.1000000000000E-01  1.1488394182036E+00 -1.2376414726092E-01
    53  5.2000000000000E-01  1.1569513427364E+00 -1.1546180610134E-01
    54  5.3000000000000E-01  1.1643740766261E+00 -1.0676870641226E-01
    55  5.4000000000000E-01  1.1711056968752E+00 -9.7691074897333E-02
    56  5.5000000000000E-01  1.1771446196688E+00 -8.8235091384702E-02
    57  5.6000000000000E-01  1.1824895931054E+00 -7.8406856838829E-02
    58  5.7000000000000E-01  1.1871396905782E+00 -6.8212363983468E-02
    59  5.8000000000000E-01  1.1910943048658E+00 -5.7657470732454E-02
    60  5.9000000000000E-01  1.1943531429894E+00 -4.6747876609839E-02
    61  6.0000000000000E-01  1.1969162218842E+00 -3.5489102324614E-02
    62  6.1000000000000E-01  1.1987838649316E+00 -2.3886472648196E-02
    63  6.2000000000000E-01  1.1999566993892E+00 -1.1945102724580E-02
    64  6.3000000000000E-01  1.2004356547520E+00  3.3011207593248E-04
    65  6.4000000000000E-01  1.2002219620701E+00  1.2934502668414E-02
    66  6.5000000000000E-01  1.1993171542413E+00  2.5863629059556E-02
    67  6.6000000000000E-01  1.1977230672938E+00  3.9113279399009E-02
    68  6.7000000000000E-01  1.1954418426607E+00  5.2679465247682E-02
    69  6.8000000000000E-01  1.1924759304477E+00  6.6558413056634E-02
    70  6.9000000000000E-01  1.1888280936832E+00  8.0746551872645E-02
    71  7.0000000000000E-01  1.1845014135361E+00  9.5240497308321E-02
    72  7.1000000000000E-01  1.1794992954767E+00  1.1003703183747E-01
    73  7.2000000000000E-01  1.1738254763513E+00  1.2513308149824E-01
    74  7.3000000000000E-01  1.1674840323323E+00  1.4052568910868E-01
    75  7.4000000000000E-01  1.1604793876988E+00  1.5621198412138E-01
    76  7.5000000000000E-01  1.1528163243972E+00  1.7218914926451E-01
    77  7.6000000000000E-01  1.1444999923224E+00  1.8845438413818E-01
    78  7.7000000000000E-01  1.1355359202562E+00  2.0500486595438E-01
    79  7.8000000000000E-01  1.1259300273898E+00  2.2183770762841E-01
    80  7.9000000000000E-01  1.1156886353567E+00  2.3894991344869E-01
    81  8.0000000000000E-01  1.1048184806900E+00  2.5633833256814E-01
    82  8.1000000000000E-01  1.0933267276193E+00  2.7399961057848E-01
    83  8.2000000000000E-01  1.0812209811124E+00  2.9193013944223E-01
    84  8.3000000000000E-01  1.0685093000669E+00  3.1012600607299E-01
    85  8.4000000000000E-01  1.0552002105479E+00  3.2858293986589E-01
    86  8.5000000000000E-01  1.0413027189702E+00  3.4729625949229E-01
    87  8.6000000000000E-01  1.0268263251148E+00  3.6626081928228E-01
    88  8.7000000000000E-01  1.0117810348719E+00  3.8547095552666E-01
    89  8.8000000000000E-01  9.9617737259557E-01  4.0492043303701E-01
    90  8.9000000000000E-01  9.8002639296007E-01  4.2460239230718E-01
    91  9.0000000000000E-01  9.6333969219995E-01  4.4450929762289E-01
    92  9.1000000000000E-01  9.4612941862186E-01  4.6463288646768E-01
    93  9.2000000000000E-01  9.2840828227275E-01  4.8496412057292E-01
    94  9.3000000000000E-01  9.1018956365131E-01  5.0549313895799E-01
    95  9.4000000000000E-01  8.9148712135106E-01  5.2620921330232E-01
    96  9.5000000000000E-01  8.7231539852536E-01  5.4710070598564E-01
    97  9.6000000000000E-01  8.5268942806754E-01  5.6815503112530E-01
    98  9.7000000000000E-01  8.3262483640280E-01  5.8935861892995E-01
    99  9.8000000000000E-01  8.1213784579221E-01  6.1069688367824E-01
   100  9.9000000000000E-01  7.9124527505392E-01  6.3215419561804E-01
   101  1.0000000000000E+00  7.6996453861174E-01  6.5371385706753E-01
   102  1.0100000000000E+00  7.4831364378678E-01  6.7535808298317E-01
   103  1.0200000000000E+00  7.2631118625419E-01  6.9706798624219E-01
   104  1.0300000000000E+00  7.0397634359360E-01  7.1882356786769E-01
   105  1.0400000000000E+00  6.8132886686913E-01  7.4060371240425E-01
   106  1.0500000000000E+00  6.5838907018240E-01  7.6238618862970E-01
   107  1.0600000000000E+00  6.3517781815009E-01  7.8414765576554E-01
   108  1.0700000000000E+00  6.1171651126589E-01  8.0586367532465E-01
   109  1.0800000000000E+00  5.8802706911583E-01  8.2750872870838E-01
   110  1.0900000000000E+00  5.6413191142460E-01  8.4905624064037E-01
   111  1.1000000000000E+00  5.4005393692035E-01  8.7047860849580E-01
   112  1.1100000000000E+00  5.1581650001478E-01  8.9174723755799E-01
   113  1.1200000000000E+00  4.9144338530539E-01  9.1283258220527E-01
   114  1.1300000000000E+00  4.6695877991650E-01  9.3370419300258E-01
   115  1.1400000000000E+00  4.4238724370601E-01  9.5433076964285E-01
   116  1.1500000000000E+00  4.1775367737493E-01  9.7468021965406E-01
   117  1.1600000000000E+00  3.9308328852670E-01  9.9471972275871E-01
   118  1.1700000000000E+00  3.6840155573380E-01  1.0144158007429E+00
   119  1.1800000000000E+00  3.4373419067894E-01  1.0337343926635E+00
   120  1.1900000000000E+00  3.1910709844809E-01  1.0526409351940E+00
   121  1.2000000000000E+00  2.9454633606246E-01  1.0711004478799E+00
   122  1.2100000000000E+00  2.7007806934596E-01  1.0890776230499E+00
   123  1.2200000000000E+00  2.4572852823386E-01  1.1065369200999E+00
   124  1.2300000000000E+00  2.2152396063755E-01  1.1234426638446E+00
   125  1.2400000000000E+00  1.9749058498837E-01  1.1397591466026E+00
   126  1.2500000000000E+00  1.7365454159225E-01  1.1554507336638E+00
   127  1.2600000000000E+00  1.5004184293401E-01  1.1704819717605E+00
   128  1.2700000000000E+00  1.2667832307767E-01  1.1848177001469E+00
   129  1.2800000000000E+00  1.0358958631576E-01  1.1984231638713E+00
   130  1.2900000000000E+00  8.0800955226582E-02  1.2112641288104E+00
   131  1.3000000000000E+00  5.8337418303982E-02  1.2233069980164E+00
   132  1.3100000000000E+00  3.6223577328933E-02  1.2345189289186E+00
   133  1.3200000000000E+00  1.4483594656447E-02  1.2448679509060E+00
   134  1.3300000000000E+00 -6.8588594051765E-03  1.2543230828119E+00
   135  1.3400000000000E+00 -2.7780658943051E-02  1.2628544498108E+00
   136  1.3500000000000E+00 -4.8259274334565E-02  1.2704333992351E+00
   137  1.3600000000000E+00 -6.8272823505413E-02  1.2770326148174E+00
   138  1.3700000000000E+00 -8.7800122367247E-02  1.2826262288591E+00
   139  1.3800000000000E+00 -1.0682073425176E-01  1.2871899318347E+00
   140  1.3900000000000E+00 -1.2531501815902E-01  1.2907010789384E+00
   141  1.4000000000000E+00 -1.4326417563978E-01  1.2931387930913E+00
   142  1.4100000000000E+00 -1.6065029613419E-01  1.2944840639325E+00
   143  1.4200000000000E+00 -1.7745640059260E-01  1.2947198423307E+00
   144  1.4300000000000E+00 -1.9366648320868E-01  1.2938311299656E+00
   145  1.4400000000000E+00 -2.0926555109965E-01  1.2918050635413E+00
   146  1.4500000000000E+00 -2.2423966177455E-01  1.2886309932168E+00
   147  1.4600000000000E+00 -2.3857595823767E-01  1.2843005548512E+00
   148  1.4700000000000E+00 -2.5226270158157E-01  1.2788077356899E+00
   149  1.4800000000000E+00 -2.6528930093188E-01  1.2721489331351E+00
   150  1.4900000000000E+00 -2.7764634061469E-01  1.2643230062755E+00
   151  1.5000000000000E+00 -2.8932560442630E-01  1.2553313198705E+00
   152  1.5100000000000E+00 -3.0032009689504E-01  1.2451777805191E+00
   153  1.5200000000000E+00 -3.1062406143485E-01  1.2338688647692E+00
   154  1.5300000000000E+00 -3.2023299530129E-01  1.2214136389570E+00
   155  1.5400000000000E+00 -3.2914366127171E-01  1.2078237705972E+00
   156  1.5500000000000E+00 -3.3735409598307E-01  1.1931135311805E+00
   157  1.5600000000000E+00 -3.4486361487269E-01  1.1772997902670E+00
   158  1.5700000000000E+00 -3.5167281367970E-01  1.1604020008020E+00
   159  1.5800000000000E+00 -3.5778356647744E-01  1.1424421756143E+00
   160  1.5900000000000E+00 -3.6319902021964E-01  1.1234448550956E+00
   161  1.6000000000000E+00 -3.6792358579652E-01  1.1034370660957E+00
   162  1.6100000000000E+00 -3.7196292560938E-01  1.0824482721031E+00
   163  1.6200000000000E+00 -3.7532393768586E-01  1.0605103148215E+00
   164  1.6300000000000E+00 -3.7801473637047E-01  1.0376573472838E+00
   165  1.6400000000000E+00 -3.8004462963844E-01  1.0139257586866E+00
   166  1.6500000000000E+00 -3.8142409309324E-01  9.8935409115905E-01
   167  1.6600000000000E+00 -3.8216474072101E-01  9.6398294871770E-01
   168  1.6700000000000E+00 -3.8227929248729E-01  9.3785489869161E-01
   169  1.6800000000000E+00 -3.8178153887347E-01  9.1101436593385E-01
   170  1.6900000000000E+00 -3.8068630246199E-01  8.8350752016841E-01
   171  1.7000000000000E+00 -3.7900939669060E-01  8.5538215685034E-01
   172  1.7100000000000E+00 -3.7676758190659E-01  8.2668757194569E-01
   173  1.7200000000000E+00 -3.7397851886226E-01  7.9747443106475E-01
   174  1.7300000000000E+00 -3.7066071980227E-01  7.6779463340637E-01
   175  1.7400000000000E+00 -3.6683349730301E-01  7.3770117099452E-01
   176  1.7500000000000E+00 -3.6251691103181E-01  7.0724798370877E-01
   177  1.7600000000000E+00 -3.5773171260219E-01  6.7648981062906E-01
   178  1.7700000000000E+00 -3.5249928870764E-01  6.4548203823126E-01
   179  1.7800000000000E+00 -3.4684160272313E-01  6.1428054598426E-01
   180  1.7900000000000E+00 -3.4078113496836E-01  5.8294154991046E-01
   181  1.8000000000000E+00 -3.3434082183194E-01  5.5152144468076E-01
   182  1.8100000000000E+00 -3.2754399395864E-01  5.2007664482126E-01
   183  1.8200000000000E+00 -3.2041431370548E-01  4.8866342561300E-01
   184  1.8300000000000E+00 -3.1297571207367E-01  4.5733776426688E-01
   185  1.8400000000000E+00 -3.0525232532503E-01  4.2615518195451E-01
   186  1.8500000000000E+00 -2.9726843149138E-01  3.9517058727171E-01
   187  1.8600000000000E+00 -2.8904838698478E-01  3.6443812170438E-01
   188  1.8700000000000E+00 -2.8061656351499E-01  3.3401100765704E-01
   189  1.8800000000000E+00 -2.7199728551790E-01  3.0394139959262E-01
   190  1.8900000000000E+00 -2.6321476829542E-01  2.7428023881706E-01
   191  1.9000000000000E+00 -2.5429305706306E-01  2.4507711242564E-01
   192  1.9100000000000E+00 -2.4525596709649E-01  2.1638011690870E-01
   193  1.9200000000000E+00 -2.3612702516241E-01  1.8823572689209E-01
   194  1.9300000000000E+00 -2.2692941241246E-01  1.6068866946445E-01
   195  1.9400000000000E+00 -2.1768590891156E-01  1.3378180451705E-01
   196  1.9500000000000E+00 -2.0841883996386E-01  1.0755601149391E-01
   197  1.9600000000000E+00 -1.9915002439088E-01  8.2050082920253E-02
   198  1.9700000000000E+00 -1.8990072490672E-01  5.7300625045890E-02
   199  1.9800000000000E+00 -1.8069160072541E-01  3.3341965906070E-02
   200  1.9900000000000E+00 -1.7154266252495E-01  1.0206071069928E-02
   201  2.0000000000000E+00 -1.6247322988135E-01 -1.2077532691671E-02
   202  2.0100000000000E+00 -1.5350189127450E-01 -3.3481825622093E-02
   203  2.0200000000000E+00 -1.4464646675599E-01 -5.3982354920378E-02
   204  2.0300000000000E+00 -1.3592397335657E-01 -7.3557286288002E-02
   205  2.0400000000000E+00 -1.2735059329840E-01 -9.2187447000629E-02
   206  2.0500000000000E+00 -1.1894164506496E-01 -1.0985636046179E-01
   207  2.0600000000000E+00 -1.1071155736809E-01 -1.2655027223728E-01
   208  2.0700000000000E+00 -1.0267384603882E-01 -1.4225816760716E-01
   209  2.0800000000000E+00 -9.4841093855888E-02 -1.5697178071174E-01
   210  2.0900000000000E+00 -8.7224933312516E-02 -1.7068559540690E-01
   211  2.1000000000000E+00 -7.9836032309317E-02 -1.8339683798232E-01
   212  2.1100000000000E+00 -7.2684082748879E-02 -1.9510546193210E-01
   213  2.1200000000000E+00 -6.5777791994075E-02 -2.0581412500689E-01
   214  2.1300000000000E+00 -5.9124877140850E-02 -2.1552815880873E-01
   215  2.1400000000000E+00 -5.2732062043659E-02 -2.2425553122597E-01
   216  2.1500000000000E+00 -4.6605077020636E-02 -2.3200680203677E-01
   217  2.1600000000000E+00 -4.0748661154518E-02 -2.3879507204021E-01
   218  2.1700000000000E+00 -3.5166567093991E-02 -2.4463592610556E-01
   219  2.1800000000000E+00 -2.9861568250929E-02 -2.4954737055433E-01
   220  2.1900000000000E+00 -2.4835468278566E-02 -2.5354976531769E-01
   221  2.2000000000000E+00 -2.0089112708268E-02 -2.5666575133065E-01
   222  2.2100000000000E+00 -1.5622402612418E-02 -2.5892017364989E-01
   223  2.2200000000000E+00 -1.1434310154771E-02 -2.6034000079703E-01
   224  2.2300000000000E+00 -7.5228958821555E-03 -2.6095424084599E-01
   225  2.2400000000000E+00 -3.8853276061087E-03 -2.6079385478531E-01
   226  2.2500000000000E+00 -5.1790071689106E-04 -2.5989166769824E-01
   227  2.2600000000000E+00  2.5839402316387E-03 -2.5828227831065E-01
   228  2.2700000000000E+00  5.4255789656212E-03 -2.5600196797412E-01
   229  2.2800000000000E+00  8.0132038585482E-03 -2.5308860856616E-01
   230  2.2900000000000E+00  1.0353781308895E-02 -2.4958156213618E-01
   231  2.3000000000000E+00  1.2455034413879E-02 -2.4552160317523E-01
   232  2.3100000000000E+00  1.4325424182495E-02 -2.4095085410546E-01
   233  2.3200000000000E+00  1.5973974453382E-02 -2.3591212526409E-01
   234  2.3300000000000E+00  1.7410078264887E-02 -2.3044820105067E-01
   235  2.3400000000000E+00  1.8643346581191E-02 -2.2460130109678E-01
   236  2.3500000000000E+00  1.9683589151361E-02 -2.1841305353699E-01
   237  2.3600000000000E+00  2.0540765227648E-02 -2.1192435339735E-01
   238  2.3700000000000E+00  2.1224941305206E-02 -2.0517524962150E-01
   239  2.3800000000000E+00  2.1746248721354E-02 -1.9820483293564E-01
   240  2.3900000000000E+00  2.2114842941800E-02 -1.9105113140401E-01
   241  2.4000000000000E+00  2.2340863988824E-02 -1.8375101142256E-01
   242  2.4100000000000E+00  2.2434398274068E-02 -1.7634008500991E-01
   243  2.4200000000000E+00  2.2405441960843E-02 -1.6885262372376E-01
   244  2.4300000000000E+00  2.2263865972656E-02 -1.6132147950131E-01
   245  2.4400000000000E+00  2.2019382752061E-02 -1.5377801267698E-01
   246  2.4500000000000E+00  2.1681514865852E-02 -1.4625202740308E-01
   247  2.4600000000000E+00  2.1259565546253E-02 -1.3877171467563E-01
   248  2.4700000000000E+00  2.0762591240314E-02 -1.3136360310755E-01
   249  2.4800000000000E+00  2.0199376231613E-02 -1.2405251756364E-01
   250  2.4900000000000E+00  1.9578409394325E-02 -1.1686154575725E-01
   251  2.5000000000000E+00  1.8907863117411E-02 -1.0981201283296E-01
   252  2.5100000000000E+00  1.8195574430535E-02 -1.0292346393895E-01
   253  2.5200000000000E+00  1.7449028359040E-02 -9.6213654777990E-02
   254  2.5300000000000E+00  1.6675343512214E-02 -8.9698550048621E-02
   255  2.5400000000000E+00  1.5881259902894E-02 -8.3392329668214E-02
   256  2.5500000000000E+00  1.5073128993522E-02 -7.7307402659130E-02
   257  2.5600000000000E+00  1.4256905939653E-02 -7.1454428500113E-02
   258  2.5700000000000E+00  1.3438143996981E-02 -6.5842345729474E-02
   259  2.5800000000000E+00  1.2621991056596E-02 -6.0478407581633E-02
   260  2.5900000000000E+00  1.1813188247063E-02 -5.5368224354340E-02
   261  2.6000000000000E+00  1.1016070542564E-02 -5.0515812206790E-02
   262  2.6100000000000E+00  1.0234569311048E-02 -4.5923648071171E-02
   263  2.6200000000000E+00  9.4722167145345E-03 -4.1592730291809E-02
   264  2.6300000000000E+00  8.7321518771932E-03 -3.7522644617663E-02
   265  2.6400000000000E+00  8.0171287275365E-03 -3.3711635144227E-02
   266  2.6500000000000E+00  7.3295254062758E-03 -3.0156679756784E-02
   267  2.6600000000000E+00  6.6713551361147E-03 -2.6853569641424E-02
   268  2.6700000000000E+00  6.0442784369611E-03 -2.3796992391364E-02
   269  2.6800000000000E+00  5.4496165643270E-03 -2.0980618222055E-02
   270  2.6900000000000E+00  4.8883660517123E-03 -1.8397188815536E-02
   271  2.7000000000000E+00  4.3612142247061E-03 -1.6038608279592E-02
   272  2.7100000000000E+00  3.8685555581637E-03 -1.3896035720278E-02
   273  2.7200000000000E+00  3.4105087437629E-03 -1.1959978911762E-02
   274  2.7300000000000E+00  2.9869343320463E-03 -1.0220388548145E-02
   275  2.7400000000000E+00  2.5974528452892E-03 -8.6667526580084E-03
   276  2.7500000000000E+00  2.2414637847592E-03 -7.2881924111960E-03
   277  2.7600000000000E+00  1.9181590840225E-03 -6.0735392025465E-03
   278  2.7700000000000E+00  1.6265551294762E-03 -5.0114677121875E-03
   279  2.7800000000000E+00  1.3654969746353E-03 -4.0905407368475E-03
   280  2.7900000000000E+00  1.1336796568638E-03 -3.2993085132300E-03
   281  2.8000000000000E+00  9.2957876633136E-04 -2.6261163452376E-03
   282  2.8100000000000E+00  7.5127173751161E-04 -2.0585681202159E-03
   283  2.8200000000000E+00  5.9696203678480E-04 -1.5851865881274E-03
   284  2.8300000000000E+00  4.6514303255768E-04 -1.1959498829755E-03
   285  2.8400000000000E+00  3.5419680877662E-04 -8.8107267030302E-04
   286  2.8500000000000E+00  2.6240180561098E-04 -6.3104850334792E-04
   287  2.8600000000000E+00  1.8800259233735E-04 -4.3687944724283E-04
   288  2.8700000000000E+00  1.2919957585298E-04 -2.9005868291900E-04
   289  2.8800000000000E+00  8.4168191244328E-05 -1.8264122168385E-04
   290  2.8900000000000E+00  5.1067159520693E-05 -1.0727874930538E-04
   291  2.9000000000000E+00  2.8046223884930E-05 -5.7257473016881E-05
   292  2.9100000000000E+00  1.3266563392035E-05 -2.6530869804422E-05
   293  2.9200000000000E+00  4.8846910358808E-06 -9.7375922624979E-06
   294  2.9300000000000E+00  1.0996768312207E-06 -2.2909971998169E-06
   295  2.9400000000000E+00  6.0543581395733E-08 -1.6154048797474E-07
   296  2.9500000000000E+00 -1.6087920218446E-08  4.8622021145536E-08
   297  2.9600000000000E+00  1.5064148695076E-09  7.4802857726849E-10
   298  2.97  0. -0.
   299  2.98 -0.  0.
   300  2.99 -0.  0.
   301  3.00 -0.  0.
   302  3.01 -0.  0.
   303  3.02  0.  0.
   304  3.03  0.  0.
   305  3.04  0.  0.
   306  3.05  0.  0.
   307  3.06  0.  0.
   308  3.07  0.  0.
   309  3.08  0.  0.
   310  3.09  0.  0.
   311  3.10  0.  0.
   312  3.11  0.  0.
   313  3.12  0.  0.
   314  3.13  0.  0.
   315  3.14  0.  0.
   316  3.15  0.  0.
   317  3.16  0.  0.
   318  3.17  0.  0.
   319  3.18  0.  0.
   320  3.19  0.  0.
   321  3.20  0.  0.
   322  3.21  0.  0.
   323  3.22  0.  0.
   324  3.23  0.  0.
   325  3.24  0.  0.
   326  3.25  0.  0.
   327  3.26  0.  0.
   328  3.27  0.  0.
   329  3.28  0.  0.
   330  3.29  0.  0.
   331  3.30  0.  0.
   332  3.31  0.  0.
   333  3.32  0.  0.
   334  3.33  0.  0.
   335  3.34  0.  0.
   336  3.35  0.  0.
   337  3.36  0.  0.
   338  3.37  0.  0.
   339  3.38  0.  0.
   340  3.39  0.  0.
   341  3.40  0.  0.
   342  3.41  0.  0.
   343  3.42  0.  0.
   344  3.43  0.  0.
   345  3.44  0.  0.
   346  3.45  0.  0.
   347  3.46  0.  0.
   348  3.47  0.  0.
   349  3.48  0.  0.
   350  3.49  0.  0.
   351  3.50  0.  0.
   352  3.51  0.  0.
   353  3.52  0.  0.
   354  3.53  0.  0.
   355  3.54  0.  0.
   356  3.55  0.  0.
   357  3.56  0.  0.
   358  3.57  0.  0.
   359  3.58  0.  0.
   360  3.59  0.  0.
   361  3.60  0.  0.
   362  3.61  0.  0.
   363  3.62  0.  0.
   364  3.63  0.  0.
   365  3.64  0.  0.
   366  3.65  0.  0.
   367  3.66  0.  0.
   368  3.67  0.  0.
   369  3.68  0.  0.
   370  3.69  0.  0.
   371  3.70  0.  0.
   372  3.71  0.  0.
   373  3.72  0.  0.
   374  3.73  0.  0.
   375  3.74  0.  0.
   376  3.75  0.  0.
   377  3.76  0.  0.
   378  3.77  0.  0.
   379  3.78  0.  0.
   380  3.79  0.  0.
   381  3.80  0.  0.
   382  3.81  0.  0.
   383  3.82  0.  0.
   384  3.83  0.  0.
   385  3.84  0.  0.
   386  3.85  0.  0.
   387  3.86  0.  0.
   388  3.87  0.  0.
   389  3.88  0.  0.
   390  3.89  0.  0.
   391  3.90  0.  0.
   392  3.91  0.  0.
   393  3.92  0.  0.
   394  3.93  0.  0.
   395  3.94  0.  0.
   396  3.95  0.  0.
   397  3.96  0.  0.
   398  3.97  0.  0.
   399  3.98  0.  0.
   400  3.99  0.  0.
   401  4.00  0.  0.
   402  4.01  0.  0.
   403  4.02  0.  0.
   404  4.03  0.  0.
   405  4.04  0.  0.
   406  4.05  0.  0.
   407  4.06  0.  0.
   408  4.07  0.  0.
   409  4.08  0.  0.
   410  4.09  0.  0.
   411  4.10  0.  0.
   412  4.11  0.  0.
   413  4.12  0.  0.
   414  4.13  0.  0.
   415  4.14  0.  0.
   416  4.15  0.  0.
   417  4.16  0.  0.
   418  4.17  0.  0.
   419  4.18  0.  0.
   420  4.19  0.  0.
   421  4.20  0.  0.
   422  4.21  0.  0.
   423  4.22  0.  0.
   424  4.23  0.  0.
   425  4.24  0.  0.
   426  4.25  0.  0.
   427  4.26  0.  0.
   428  4.27  0.  0.
   429  4.28  0.  0.
   430  4.29  0.  0.
   431  4.30  0.  0.
   432  4.31  0.  0.
   433  4.32  0.  0.
   434  4.33  0.  0.
   435  4.34  0.  0.
   436  4.35  0.  0.
   437  4.36  0.  0.
   438  4.37  0.  0.
   439  4.38  0.  0.
   440  4.39  0.  0.
   441  4.40  0.  0.
   442  4.41  0.  0.
   443  4.42  0.  0.
   444  4.43  0.  0.
   445  4.44  0.  0.
   446  4.45  0.  0.
   447  4.46  0.  0.
   448  4.47  0.  0.
   449  4.48  0.  0.
   450  4.49  0.  0.
   451  4.50  0.  0.
   452  4.51  0.  0.
   453  4.52  0.  0.
   454  4.53  0.  0.
   455  4.54  0.  0.
   456  4.55  0.  0.
   457  4.56  0.  0.
   458  4.57  0.  0.
   459  4.58  0.  0.
   460  4.59  0.  0.
   461  4.60  0.  0.
   462  4.61  0.  0.
   463  4.62  0.  0.
   464  4.63  0.  0.
   465  4.64  0.  0.
   466  4.65  0.  0.
   467  4.66  0.  0.
   468  4.67  0.  0.
   469  4.68  0.  0.
   470  4.69  0.  0.
   471  4.70  0.  0.
   472  4.71  0.  0.
   473  4.72  0.  0.
   474  4.73  0.  0.
   475  4.74  0.  0.
   476  4.75  0.  0.
   477  4.76  0.  0.
   478  4.77  0.  0.
   479  4.78  0.  0.
   480  4.79  0.  0.
   481  4.80  0.  0.
   482  4.81  0.  0.
   483  4.82  0.  0.
   484  4.83  0.  0.
   485  4.84  0.  0.
   486  4.85  0.  0.
   487  4.86  0.  0.
   488  4.87  0.  0.
   489  4.88  0.  0.
   490  4.89  0.  0.
   491  4.90  0.  0.
   492  4.91  0.  0.
   493  4.92  0.  0.
   494  4.93  0.  0.
   495  4.94  0.  0.
   496  4.95  0.  0.
   497  4.96  0.  0.
   498  4.97  0.  0.
   499  4.98  0.  0.
   500  4.99  0.  0.
   501  5.00  0.  0.
   502  5.01  0.  0.
   503  5.02  0.  0.
   504  5.03  0.  0.
   505  5.04  0.  0.
   506  5.05  0.  0.
   507  5.06  0.  0.
   508  5.07  0.  0.
   509  5.08  0.  0.
   510  5.09  0.  0.
   511  5.10  0.  0.
   512  5.11  0.  0.
   513  5.12  0.  0.
   514  5.13  0.  0.
   515  5.14  0.  0.
   516  5.15  0.  0.
   517  5.16  0.  0.
   518  5.17  0.  0.
   519  5.18  0.  0.
   520  5.19  0.  0.
   521  5.20  0.  0.
   522  5.21  0.  0.
   523  5.22  0.  0.
   524  5.23  0.  0.
   525  5.24  0.  0.
   526  5.25  0.  0.
   527  5.26  0.  0.
   528  5.27  0.  0.
   529  5.28  0.  0.
   530  5.29  0.  0.
   531  5.30  0.  0.
   532  5.31  0.  0.
   533  5.32  0.  0.
   534  5.33  0.  0.
   535  5.34  0.  0.
   536  5.35  0.  0.
   537  5.36  0.  0.
   538  5.37  0.  0.
   539  5.38  0.  0.
   540  5.39  0.  0.
   541  5.40  0.  0.
   542  5.41  0.  0.
   543  5.42  0.  0.
   544  5.43  0.  0.
   545  5.44  0.  0.
   546  5.45  0.  0.
   547  5.46  0.  0.
   548  5.47  0.  0.
   549  5.48  0.  0.
   550  5.49  0.  0.
   551  5.50  0.  0.
   552  5.51  0.  0.
   553  5.52  0.  0.
   554  5.53  0.  0.
   555  5.54  0.  0.
   556  5.55  0.  0.
   557  5.56  0.  0.
   558  5.57  0.  0.
   559  5.58  0.  0.
   560  5.59  0.  0.
   561  5.60  0.  0.
   562  5.61  0.  0.
   563  5.62  0.  0.
   564  5.63  0.  0.
   565  5.64  0.  0.
   566  5.65  0.  0.
   567  5.66  0.  0.
   568  5.67  0.  0.
   569  5.68  0.  0.
   570  5.69  0.  0.
   571  5.70  0.  0.
   572  5.71  0.  0.
   573  5.72  0.  0.
   574  5.73  0.  0.
   575  5.74  0.  0.
   576  5.75  0.  0.
   577  5.76  0.  0.
   578  5.77  0.  0.
   579  5.78  0.  0.
   580  5.79  0.  0.
   581  5.80  0.  0.
   582  5.81  0.  0.
   583  5.82  0.  0.
   584  5.83  0.  0.
   585  5.84  0.  0.
   586  5.85  0.  0.
   587  5.86  0.  0.
   588  5.87  0.  0.
   589  5.88  0.  0.
   590  5.89  0.  0.
   591  5.90  0.  0.
   592  5.91  0.  0.
   593  5.92  0.  0.
   594  5.93  0.  0.
   595  5.94  0.  0.
   596  5.95  0.  0.
   597  5.96  0.  0.
   598  5.97  0.  0.
   599  5.98  0.  0.
   600  5.99  0.  0.
   1                         2.2844653384678E+00  3.3256204777880E-01
     1  0.0000000000000E+00  2.3096444895510E-11 -4.7611812062365E-11
     2  1.0000000000000E-02  4.7279479203189E-04 -2.3398591570437E-04
     3  2.0000000000000E-02  1.8902886896163E-03 -9.3493643326132E-04
     4  3.0000000000000E-02  4.2498129116197E-03 -2.0998344705197E-03
     5  4.0000000000000E-02  7.5469283253676E-03 -3.7236668871812E-03
     6  5.0000000000000E-02  1.1775438658313E-02 -5.7994473926821E-03
     7  6.0000000000000E-02  1.6927408910264E-02 -8.3182484435485E-03
     8  7.0000000000000E-02  2.2993188882581E-02 -1.1269241957712E-02
     9  8.0000000000000E-02  2.9961441717673E-02 -1.4639748625666E-02
    10  9.0000000000000E-02  3.7819177319534E-02 -1.8415295551993E-02
    11  1.0000000000000E-01  4.6551790504200E-02 -2.2579681915894E-02
    12  1.1000000000000E-01  5.6143103707927E-02 -2.7115052296168E-02
    13  1.2000000000000E-01  6.6575414060740E-02 -3.2001977265072E-02
    14  1.3000000000000E-01  7.7829544613850E-02 -3.7219540816555E-02
    15  1.4000000000000E-01  8.9884899491391E-02 -4.2745434157868E-02
    16  1.5000000000000E-01  1.0271952272013E-01 -4.8556055359807E-02
    17  1.6000000000000E-01  1.1631016047530E-01 -5.4626614329921E-02
    18  1.7000000000000E-01  1.3063232646645E-01 -6.0931242545063E-02
    19  1.8000000000000E-01  1.4566037017479E-01 -6.7443106954941E-02
    20  1.9000000000000E-01  1.6136754764203E-01 -7.4134527446925E-02
    21  2.0000000000000E-01  1.7772609450129E-01 -8.0977097244410E-02
    22  2.1000000000000E-01  1.9470730093280E-01 -8.7941805596600E-02
    23  2.2000000000000E-01  2.1228158822066E-01 -9.4999162106836E-02
    24  2.3000000000000E-01  2.3041858658237E-01 -1.0211932203953E-01
    25  2.4000000000000E-01  2.4908721394006E-01 -1.0927221194235E-01
    26  2.5000000000000E-01  2.6825575530129E-01 -1.1642765492085E-01
    27  2.6000000000000E-01  2.8789194241760E-01 -1.2355549490691E-01
    28  2.7000000000000E-01  3.0796303339177E-01 -1.3062571927017E-01
    29  2.8000000000000E-01  3.2843589190846E-01 -1.3760857913353E-01
    30  2.9000000000000E-01  3.4927706576885E-01 -1.4447470676882E-01
    31  3.0000000000000E-01  3.7045286441741E-01 -1.5119522946774E-01
    32  3.1000000000000E-01  3.9192943515754E-01 -1.5774187930553E-01
    33  3.2000000000000E-01  4.1367283776418E-01 -1.6408709824023E-01