:MDSTEP: 10
:R(Bohr):
  1.1852244038E-02   2.1696830635E-03   1.9265556781E-02
  3.3840631009E-02   5.1589327278E-02   3.0955093200E+00
  6.6452186921E-02   3.0945233301E+00   2.0927909427E-03
  1.1634772976E-01   3.0790149815E+00   3.0644342061E+00
  3.1550227348E+00   4.6036926671E-02   2.3181798087E-02
  3.0569297888E+00   4.5149429945E-02   3.0842874483E+00
  3.1557158642E+00   3.0616080190E+00   4.8312816043E-02
  3.1540844761E+00   3.0776019733E+00   3.0491315963E+00
  6.4136564157E+00   6.0719673712E+00   6.0440928709E+00
  6.1505657225E+00   1.6327987656E-01   2.8765061710E+00
  6.0689097289E+00   3.3065648504E+00   8.5943681931E-02
  6.1665355838E+00   3.1916975793E+00   3.2593934146E+00
  9.1670674934E+00   1.7896327362E-02   5.9544641782E+00
  8.9697600726E+00   1.2748150217E-02   3.0581006680E+00
  9.3464245284E+00   2.9494293519E+00   6.0448339779E+00
  9.2345230331E+00   3.0360733917E+00   2.8951523212E+00
:V(Bohr/atu):
  0.0000000000E+00   0.0000000000E+00   0.0000000000E+00
  0.0000000000E+00   0.0000000000E+00   0.0000000000E+00
  0.0000000000E+00   0.0000000000E+00   0.0000000000E+00
  0.0000000000E+00   0.0000000000E+00   0.0000000000E+00
  0.0000000000E+00   0.0000000000E+00   0.0000000000E+00
  0.0000000000E+00   0.0000000000E+00   0.0000000000E+00
  0.0000000000E+00   0.0000000000E+00   0.0000000000E+00
  0.0000000000E+00   0.0000000000E+00   0.0000000000E+00
  1.2419829741E-03   1.4356854671E-04  -5.0373731181E-04
 -4.0477698669E-04   6.5481021253E-04  -9.6994693359E-04
 -1.0109412937E-04   9.8255091082E-04   4.7645230496E-04
  3.0551045554E-04   5.9787811516E-04   9.2929558166E-04
 -1.0251510127E-04  -2.5990532260E-05  -6.6229075372E-04
 -1.0575568330E-03  -3.9711884946E-06  -1.3193810144E-05
  3.9179171744E-04  -6.1320249806E-04  -4.2250566361E-04
  2.1171533706E-04  -1.6827706371E-04  -8.2241265500E-04
:snose: 0.0178485021201933
:xinose: 0.000223963569571926
:TTHRMI(K): 800
:TEL(K): 800
:TIO(K): 853.750914515931
