:MDSTEP: 10
:R(Bohr):
  1.1852244038E-02   2.1696830635E-03   1.9265556781E-02
  3.3840631009E-02   5.1589327278E-02   3.0955093200E+00
  6.6452186921E-02   3.0945233301E+00   2.0927909427E-03
  1.1634772976E-01   3.0790149815E+00   3.0644342061E+00
  3.1550227348E+00   4.6036926671E-02   2.3181798087E-02
  3.0569297888E+00   4.5149429945E-02   3.0842874483E+00
  3.1557158642E+00   3.0616080190E+00   4.8312816043E-02
  3.1540844761E+00   3.0776019733E+00   3.0491315963E+00
  6.4136564151E+00   6.0719673717E+00   6.0440928708E+00
  6.1505657222E+00   1.6327987664E-01   2.8765061711E+00
  6.0689097289E+00   3.3065648499E+00   8.5943682094E-02
  6.1665355837E+00   3.1916975792E+00   3.2593934143E+00
  9.1670674938E+00   1.7896327164E-02   5.9544641785E+00
  8.9697600731E+00   1.2748150165E-02   3.0581006677E+00
  9.3464245283E+00   2.9494293522E+00   6.0448339778E+00
  9.2345230332E+00   3.0360733918E+00   2.8951523214E+00
:V(Bohr/atu):
  0.0000000000E+00   0.0000000000E+00   0.0000000000E+00
  0.0000000000E+00   0.0000000000E+00   0.0000000000E+00
  0.0000000000E+00   0.0000000000E+00   0.0000000000E+00
  0.0000000000E+00   0.0000000000E+00   0.0000000000E+00
  0.0000000000E+00   0.0000000000E+00   0.0000000000E+00
  0.0000000000E+00   0.0000000000E+00   0.0000000000E+00
  0.0000000000E+00   0.0000000000E+00   0.0000000000E+00
  0.0000000000E+00   0.0000000000E+00   0.0000000000E+00
  1.2419829683E-03   1.4356855098E-04  -5.0373731326E-04
 -4.0477698883E-04   6.5481021293E-04  -9.6994693161E-04
 -1.0109412926E-04   9.8255090553E-04   4.7645230576E-04
  3.0551045452E-04   5.9787811361E-04   9.2929557843E-04
 -1.0251509701E-04  -2.5990534142E-05  -6.6229075059E-04
 -1.0575568278E-03  -3.9711891057E-06  -1.3193812784E-05
  3.9179171656E-04  -6.1320249454E-04  -4.2250566460E-04
  2.1171533805E-04  -1.6827706201E-04  -8.2241265308E-04
:snose: 0.0178485001045671
:xinose: 0.000223963544348678
:TTHRMI(K): 800
:TEL(K): 800
:TIO(K): 853.750909255247
