Au    ONCVPSP-4.0.1  r_core=   2.45245   2.45245   2.17590   3.13413
     79.0000     19.0000      200312    zatom,zion,pspd
     8       2   3     4   600     0    pspcod,pspxc,lmax,lloc,mmax,r2well
  5.99000000  0.00000000  0.00000000    rchrg fchrg qchrg
     2     2     2     2     0    nproj
     1     1           extension_switch
   0                         3.9907598909275E+00  5.1053531287271E-01
     1  0.0000000000000E+00 -5.9080518255428E-12  2.0389454014058E-12
     2  1.0000000000000E-02  5.7411755150139E-02  2.0457136228222E-03
     3  2.0000000000000E-02  1.1472645987617E-01  4.1155147192440E-03
     4  3.0000000000000E-02  1.7184726403627E-01  6.2334410786739E-03
     5  4.0000000000000E-02  2.2867771755820E-01  8.4234312275512E-03
     6  5.0000000000000E-02  2.8512196923811E-01  1.0709275060880E-02
     7  6.0000000000000E-02  3.4108496406037E-01  1.3114564787950E-02
     8  7.0000000000000E-02  3.9647263855223E-01  1.5662646294609E-02
     9  8.0000000000000E-02  4.5119211369323E-01  1.8376571022418E-02
    10  9.0000000000000E-02  5.0515188490646E-01  2.1279048462495E-02
    11  1.0000000000000E-01  5.5826200866748E-01  2.4392399358890E-02
    12  1.1000000000000E-01  6.1043428527712E-01  2.7738509712847E-02
    13  1.2000000000000E-01  6.6158243735540E-01  3.1338785675368E-02
    14  1.3000000000000E-01  7.1162228362716E-01  3.5214109411243E-02
    15  1.4000000000000E-01  7.6047190758355E-01  3.9384796012833E-02
    16  1.5000000000000E-01  8.0805182061917E-01  4.3870551536765E-02
    17  1.6000000000000E-01  8.5428511926096E-01  4.8690432231285E-02
    18  1.7000000000000E-01  8.9909763612254E-01  5.3862805016044E-02
    19  1.8000000000000E-01  9.4241808423636E-01  5.9405309269918E-02
    20  1.9000000000000E-01  9.8417819443556E-01  6.5334819976262E-02
    21  2.0000000000000E-01  1.0243128454781E+00  7.1667412268098E-02
    22  2.1000000000000E-01  1.0627601866273E+00  7.8418327409044E-02
    23  2.2000000000000E-01  1.0994617524240E+00  8.5601940238946E-02
    24  2.3000000000000E-01  1.1343625694106E+00  9.3231728105909E-02
    25  2.4000000000000E-01  1.1674112545884E+00  1.0132024129959E-01
    26  2.5000000000000E-01  1.1985601054148E+00  1.0987907499348E-01
    27  2.6000000000000E-01  1.2277651811718E+00  1.1891884269694E-01
    28  2.7000000000000E-01  1.2549863755607E+00  1.2844915121118E-01
    29  2.8000000000000E-01  1.2801874804047E+00  1.3847857707642E-01
    30  2.9000000000000E-01  1.3033362403644E+00  1.4901464449173E-01
    31  3.0000000000000E-01  1.3244043985984E+00  1.6006380468264E-01
    32  3.1000000000000E-01  1.3433677333252E+00  1.7163141668636E-01
    33  3.2000000000000E-01  1.3602060852686E+00  1.8372172951955E-01
    34  3.3000000000000E-01  1.3749033759928E+00  1.9633786568889E-01
    35  3.4000000000000E-01  1.3874476171597E+00  2.0948180600116E-01
    36  3.5000000000000E-01  1.3978309107634E+00  2.2315437562627E-01
    37  3.6000000000000E-01  1.4060494404218E+00  2.3735523136452E-01
    38  3.7000000000000E-01  1.4121034538294E+00  2.5208285006767E-01
    39  3.8000000000000E-01  1.4159972364949E+00  2.6733451816299E-01
    40  3.9000000000000E-01  1.4177390769124E+00  2.8310632222973E-01
    41  4.0000000000000E-01  1.4173412233352E+00  2.9939314057858E-01
    42  4.1000000000000E-01  1.4148198323391E+00  3.1618863578725E-01
    43  4.2000000000000E-01  1.4101949093857E+00  3.3348524814846E-01
    44  4.3000000000000E-01  1.4034902416093E+00  3.5127418999120E-01
    45  4.4000000000000E-01  1.3947333230731E+00  3.6954544084154E-01
    46  4.5000000000000E-01  1.3839552727520E+00  3.8828774339591E-01
    47  4.6000000000000E-01  1.3711907455180E+00  4.0748860028714E-01
    48  4.7000000000000E-01  1.3564778364146E+00  4.2713427163293E-01
    49  4.8000000000000E-01  1.3398579785208E+00  4.4720977336521E-01
    50  4.9000000000000E-01  1.3213758347169E+00  4.6769887635032E-01
    51  5.0000000000000E-01  1.3010791836704E+00  4.8858410632092E-01
    52  5.1000000000000E-01  1.2790188003754E+00  5.0984674465352E-01
    53  5.2000000000000E-01  1.2552483315780E+00  5.3146683003791E-01
    54  5.3000000000000E-01  1.2298241664331E+00  5.5342316109948E-01
    55  5.4000000000000E-01  1.2028053027389E+00  5.7569330004898E-01
    56  5.5000000000000E-01  1.1742532090980E+00  5.9825357744926E-01
    57  5.6000000000000E-01  1.1442316833596E+00  6.2107909820387E-01
    58  5.7000000000000E-01  1.1128067076943E+00  6.4414374888684E-01
    59  5.8000000000000E-01  1.0800463006550E+00  6.6742020654865E-01
    60  5.9000000000000E-01  1.0460203665748E+00  6.9087994914807E-01
    61  6.0000000000000E-01  1.0108005426515E+00  7.1449326777374E-01
    62  6.1000000000000E-01  9.7446004406228E-01  7.3822928083381E-01
    63  6.2000000000000E-01  9.3707350745106E-01  7.6205595040472E-01
    64  6.3000000000000E-01  8.9871683312250E-01  7.8594010094243E-01
    65  6.4000000000000E-01  8.5946702627252E-01  8.0984744057051E-01
    66  6.5000000000000E-01  8.1940203757722E-01  8.3374258516931E-01
    67  6.6000000000000E-01  7.7860060345532E-01  8.5758908549818E-01
    68  6.7000000000000E-01  7.3714208631049E-01  8.8134945758943E-01
    69  6.8000000000000E-01  6.9510631505217E-01  9.0498521665691E-01
    70  6.9000000000000E-01  6.5257342618391E-01  9.2845691476459E-01
    71  7.0000000000000E-01  6.0962370573972E-01  9.5172418250038E-01
    72  7.1000000000000E-01  5.6633743233911E-01  9.7474577489806E-01
    73  7.2000000000000E-01  5.2279472162238E-01  9.9747962184503E-01
    74  7.3000000000000E-01  4.7907537231812E-01  1.0198828832061E+00
    75  7.4000000000000E-01  4.3525871418541E-01  1.0419120088827E+00
    76  7.5000000000000E-01  3.9142345806419E-01  1.0635228040125E+00
    77  7.6000000000000E-01  3.4764754825785E-01  1.0846704995007E+00
    78  7.7000000000000E-01  3.0400801746378E-01  1.1053098280495E+00
    79  7.8000000000000E-01  2.6058084445866E-01  1.1253951058359E+00
    80  7.9000000000000E-01  2.1744081473780E-01  1.1448803199553E+00
    81  8.0000000000000E-01  1.7466138429961E-01  1.1637192217263E+00
    82  8.1000000000000E-01  1.3231454675981E-01  1.1818654259139E+00
    83  8.2000000000000E-01  9.0470703972937E-02  1.1992725158981E+00
    84  8.3000000000000E-01  4.9198540332768E-02  1.2158941547744E+00
    85  8.4000000000000E-01  8.5649009178433E-03  1.2316842023343E+00
    86  8.5000000000000E-01 -3.1365326356731E-02  1.2465968378293E+00
    87  8.6000000000000E-01 -7.0529324424431E-02  1.2605866883788E+00
    88  8.7000000000000E-01 -1.0886645643650E-01  1.2736089628325E+00
    89  8.8000000000000E-01 -1.4631837066558E-01  1.2856195908521E+00
    90  8.9000000000000E-01 -1.8282910079697E-01  1.2965753669248E+00
    91  9.0000000000000E-01 -2.1834516146335E-01  1.3064340989691E+00
    92  9.1000000000000E-01 -2.5281563888037E-01  1.3151547611419E+00
    93  9.2000000000000E-01 -2.8619227644266E-01  1.3226976504048E+00
    94  9.3000000000000E-01 -3.1842955514072E-01  1.3290245463488E+00
    95  9.4000000000000E-01 -3.4948476866070E-01  1.3340988737322E+00
    96  9.5000000000000E-01 -3.7931809302982E-01  1.3378858671262E+00
    97  9.6000000000000E-01 -4.0789265067125E-01  1.3403527370186E+00
    98  9.7000000000000E-01 -4.3517456873342E-01  1.3414688366726E+00
    99  9.8000000000000E-01 -4.6113303155953E-01  1.3412058289925E+00
   100  9.9000000000000E-01 -4.8574032716475E-01  1.3395378526031E+00
   101  1.0000000000000E+00 -5.0897188758996E-01  1.3364416863077E+00
   102  1.0100000000000E+00 -5.3080632300318E-01  1.3318969110512E+00
   103  1.0200000000000E+00 -5.5122544942216E-01  1.3258860684797E+00
   104  1.0300000000000E+00 -5.7021430993511E-01  1.3183948151595E+00
   105  1.0400000000000E+00 -5.8776118929997E-01  1.3094120714902E+00
   106  1.0500000000000E+00 -6.0385762180775E-01  1.2989301643262E+00
   107  1.0600000000000E+00 -6.1849839230040E-01  1.2869449623075E+00
   108  1.0700000000000E+00 -6.3168153024071E-01  1.2734560028876E+00
   109  1.0800000000000E+00 -6.4340829673859E-01  1.2584666100448E+00
   110  1.0900000000000E+00 -6.5368316444697E-01  1.2419840016636E+00
   111  1.1000000000000E+00 -6.6251379025005E-01  1.2240193855825E+00
   112  1.1100000000000E+00 -6.6991098067736E-01  1.2045880433191E+00
   113  1.1200000000000E+00 -6.7588864998907E-01  1.1837094005056E+00
   114  1.1300000000000E+00 -6.8046377089137E-01  1.1614070830951E+00
   115  1.1400000000000E+00 -6.8365631785488E-01  1.1377089584361E+00
   116  1.1500000000000E+00 -6.8548920302493E-01  1.1126471603531E+00
   117  1.1600000000000E+00 -6.8598820472920E-01  1.0862580974213E+00
   118  1.1700000000000E+00 -6.8518188860657E-01  1.0585824436766E+00
   119  1.1800000000000E+00 -6.8310152139973E-01  1.0296651110680E+00
   120  1.1900000000000E+00 -6.7978097747488E-01  9.9955520302097E-01
   121  1.2000000000000E+00 -6.7525663815266E-01  9.6830594856151E-01
   122  1.2100000000000E+00 -6.6956728395707E-01  9.3597461652378E-01
   123  1.2200000000000E+00 -6.6275397991177E-01  9.0262240945253E-01
   124  1.2300000000000E+00 -6.5485995403727E-01  8.6831433689952E-01
   125  1.2400000000000E+00 -6.4593046922666E-01  8.3311906790641E-01
   126  1.2500000000000E+00 -6.3601268870252E-01  7.9710876256499E-01
   127  1.2600000000000E+00 -6.2515553528277E-01  7.6035888264519E-01
   128  1.2700000000000E+00 -6.1340954470864E-01  7.2294798138507E-01
   129  1.2800000000000E+00 -6.0082671331319E-01  6.8495747264190E-01
   130  1.2900000000000E+00 -5.8746034033452E-01  6.4647137971035E-01
   131  1.3000000000000E+00 -5.7336486520199E-01  6.0757606422001E-01
   132  1.3100000000000E+00 -5.5859570014915E-01  5.6835993563289E-01
   133  1.3200000000000E+00 -5.4320905853008E-01  5.2891314196686E-01
   134  1.3300000000000E+00 -5.2726177923933E-01  4.8932724247609E-01
   135  1.3400000000000E+00 -5.1081114765726E-01  4.4969486312273E-01
   136  1.3500000000000E+00 -4.9391471356341E-01  4.1010933577305E-01
   137  1.3600000000000E+00 -4.7663010647984E-01  3.7066432214809E-01
   138  1.3700000000000E+00 -4.5901484892410E-01  3.3145342364999E-01
   139  1.3800000000000E+00 -4.4112616806750E-01  2.9256977827263E-01
   140  1.3900000000000E+00 -4.2302080630853E-01  2.5410564588561E-01
   141  1.4000000000000E+00 -4.0475483128332E-01  2.1615198325622E-01
   142  1.4100000000000E+00 -3.8638344584491E-01  1.7879801024103E-01
   143  1.4200000000000E+00 -3.6796079855090E-01  1.4213076864026E-01
   144  1.4300000000000E+00 -3.4953979520388E-01  1.0623467525985E-01
   145  1.4400000000000E+00 -3.3117191199208E-01  7.1191070770929E-02
   146  1.4500000000000E+00 -3.1290701077744E-01  3.7077765991747E-02
   147  1.4600000000000E+00 -2.9479315707583E-01  3.9685872430794E-03
   148  1.4700000000000E+00 -2.7687644126882E-01 -2.8067077554211E-02
   149  1.4800000000000E+00 -2.5920080357823E-01 -5.8964730363905E-02
   150  1.4900000000000E+00 -2.4180786332394E-01 -8.8665210428016E-02
   151  1.5000000000000E+00 -2.2473675297171E-01 -1.1711513590787E-01
   152  1.5100000000000E+00 -2.0802395746161E-01 -1.4426733813339E-01
   153  1.5200000000000E+00 -1.9170315928849E-01 -1.7008128685295E-01
   154  1.5300000000000E+00 -1.7580508978439E-01 -1.9452350491717E-01
   155  1.5400000000000E+00 -1.6035738702866E-01 -2.1756797088103E-01
   156  1.5500000000000E+00 -1.4538446084854E-01 -2.3919650780920E-01
   157  1.5600000000000E+00 -1.3090736352198E-01 -2.5939916406257E-01
   158  1.5700000000000E+00 -1.1694368074978E-01 -2.7817452660373E-01
   159  1.5800000000000E+00 -1.0350737309762E-01 -2.9553025315572E-01
   160  1.5900000000000E+00 -9.0608690765200E-02 -3.1148330438147E-01
   161  1.6000000000000E+00 -7.8256871825734E-02 -3.2604904582713E-01
   162  1.6100000000000E+00 -6.6450129123383E-02 -3.3928131583106E-01
   163  1.6200000000000E+00 -5.5245055006835E-02 -3.5099531320461E-01
   164  1.6300000000000E+00 -4.4596461885251E-02 -3.6140893612878E-01
   165  1.6400000000000E+00 -3.4493159849595E-02 -3.7059801957283E-01
   166  1.6500000000000E+00 -2.4953797863936E-02 -3.7851402598582E-01
   167  1.6600000000000E+00 -1.5972761574252E-02 -3.8520114783268E-01
   168  1.6700000000000E+00 -7.5476122221744E-03 -3.9068642575206E-01
   169  1.6800000000000E+00  3.2622472905197E-04 -3.9500126148997E-01
   170  1.6900000000000E+00  7.6546657716528E-03 -3.9817843274352E-01
   171  1.7000000000000E+00  1.4444972617889E-02 -4.0025230656815E-01
   172  1.7100000000000E+00  2.0705700337402E-02 -4.0125883097463E-01
   173  1.7200000000000E+00  2.6446641644166E-02 -4.0123551028562E-01
   174  1.7300000000000E+00  3.1678767523504E-02 -4.0022136477298E-01
   175  1.7400000000000E+00  3.6414164399545E-02 -3.9825687512841E-01
   176  1.7500000000000E+00  4.0665968067958E-02 -3.9538391241019E-01
   177  1.7600000000000E+00  4.4448294640309E-02 -3.9164565418783E-01
   178  1.7700000000000E+00  4.7776168766746E-02 -3.8708648768220E-01
   179  1.7800000000000E+00  5.0665449422663E-02 -3.8175190076925E-01
   180  1.7900000000000E+00  5.3132753561602E-02 -3.7568836177858E-01
   181  1.8000000000000E+00  5.5195377953818E-02 -3.6894318908390E-01
   182  1.8100000000000E+00  5.6871219541554E-02 -3.6156441152797E-01
   183  1.8200000000000E+00  5.8178694653529E-02 -3.5360062077104E-01
   184  1.8300000000000E+00  5.9136657434163E-02 -3.4510081670423E-01
   185  1.8400000000000E+00  5.9764317846317E-02 -3.3611424708671E-01
   186  1.8500000000000E+00  6.0081159614044E-02 -3.2669024260017E-01
   187  1.8600000000000E+00  6.0106858474088E-02 -3.1687804852909E-01
   188  1.8700000000000E+00  5.9861201105768E-02 -3.0672665428689E-01
   189  1.8800000000000E+00  5.9364005107295E-02 -2.9628462200998E-01
   190  1.8900000000000E+00  5.8635040382661E-02 -2.8559991543743E-01
   191  1.9000000000000E+00  5.7693952297150E-02 -2.7471973028099E-01
   192  1.9100000000000E+00  5.6560186951036E-02 -2.6369032726991E-01
   193  1.9200000000000E+00  5.5252918910448E-02 -2.5255686902773E-01
   194  1.9300000000000E+00  5.3790981721583E-02 -2.4136326190264E-01
   195  1.9400000000000E+00  5.2192801519481E-02 -2.3015200383119E-01
   196  1.9500000000000E+00  5.0476334025737E-02 -2.1896403926604E-01
   197  1.9600000000000E+00  4.8659005211044E-02 -2.0783862214408E-01
   198  1.9700000000000E+00  4.6757655877284E-02 -1.9681318780786E-01
   199  1.9800000000000E+00  4.4788490392229E-02 -1.8592323472788E-01
   200  1.9900000000000E+00  4.2767029785913E-02 -1.7520221680000E-01
   201  2.0000000000000E+00  4.0708069392839E-02 -1.6468144691529E-01
   202  2.0100000000000E+00  3.8625641197383E-02 -1.5439001241734E-01
   203  2.0200000000000E+00  3.6532981013273E-02 -1.4435470297860E-01
   204  2.0300000000000E+00  3.4442500599275E-02 -1.3459995133806E-01
   205  2.0400000000000E+00  3.2365764784104E-02 -1.2514778725043E-01
   206  2.0500000000000E+00  3.0313473644755E-02 -1.1601780490598E-01
   207  2.0600000000000E+00  2.8295449752652E-02 -1.0722714398580E-01
   208  2.0700000000000E+00  2.6320630471265E-02 -9.8790484418927E-02
   209  2.0800000000000E+00  2.4397065261514E-02 -9.0720054820618E-02
   210  2.0900000000000E+00  2.2531917919083E-02 -8.3025654487669E-02
   211  2.1000000000000E+00  2.0731473640408E-02 -7.5714688738560E-02
   212  2.1100000000000E+00  1.9001150785679E-02 -6.8792217294320E-02
   213  2.1200000000000E+00  1.7345517178777E-02 -6.2261015303807E-02
   214  2.1300000000000E+00  1.5768310759751E-02 -5.6121646537994E-02
   215  2.1400000000000E+00  1.4272464378011E-02 -5.0372548188259E-02
   216  2.1500000000000E+00  1.2860134491533E-02 -4.5010126628335E-02
   217  2.1600000000000E+00  1.1532733515386E-02 -4.0028863427340E-02
   218  2.1700000000000E+00  1.0290965541017E-02 -3.5421430828425E-02
   219  2.1800000000000E+00  9.1348651318419E-03 -3.1178815854818E-02
   220  2.1900000000000E+00  8.0638388797052E-03 -2.7290452134288E-02
   221  2.2000000000000E+00  7.0767093952027E-03 -2.3744358493684E-02
   222  2.2100000000000E+00  6.1717613906185E-03 -2.0527283326034E-02
   223  2.2200000000000E+00  5.3467895050723E-03 -1.7624853700710E-02
   224  2.2300000000000E+00  4.5991475118814E-03 -1.5021728152575E-02
   225  2.2400000000000E+00  3.9257985432576E-03 -1.2701752067150E-02
   226  2.2500000000000E+00  3.3233659642616E-03 -1.0648114564908E-02
   227  2.2600000000000E+00  2.7881845267883E-03 -8.8435057807800E-03
   228  2.2700000000000E+00  2.3163514353928E-03 -7.2702734343080E-03
   229  2.2800000000000E+00  1.9037769613157E-03 -5.9105775966520E-03
   230  2.2900000000000E+00  1.5462344338866E-03 -4.7465445997442E-03
   231  2.3000000000000E+00  1.2394074881421E-03 -3.7604000620356E-03
   232  2.3100000000000E+00  9.7894141788583E-04 -2.9346561137524E-03
   233  2.3200000000000E+00  7.6048289852994E-04 -2.2521884043141E-03
   234  2.3300000000000E+00  5.7971703897776E-04 -1.6963126474500E-03
   235  2.3400000000000E+00  4.3232566244648E-04 -1.2499511873512E-03
   236  2.3500000000000E+00  3.1413682320337E-04 -8.9694792711072E-04
   237  2.3600000000000E+00  2.2131040429234E-04 -6.2384187204615E-04
   238  2.3700000000000E+00  1.5017812509641E-04 -4.1796073854406E-04
   239  2.3800000000000E+00  9.7269964608933E-05 -2.6747218998737E-04
   240  2.3900000000000E+00  5.9352593390881E-05 -1.6157974825585E-04
   241  2.4000000000000E+00  3.3449279285469E-05 -9.0562637456557E-05
   242  2.4100000000000E+00  1.6858947803453E-05 -4.5834723559466E-05
   243  2.4200000000000E+00  7.1718343713557E-06 -1.9991331565023E-05
   244  2.4300000000000E+00  2.2835456037055E-06 -6.8327030260634E-06
   245  2.4400000000000E+00  3.8999976707535E-07 -1.4454288399054E-06
   246  2.4500000000000E+00  3.8780423608374E-09 -7.3726063023156E-08
   247  2.4600000000000E+00  4.4469975862647E-09  2.3439303805833E-08
   248  2.4700000000000E+00  1.7873872946404E-09 -1.0643380562148E-08
   249  2.48  0. -0.
   250  2.49 -0.  0.
   251  2.50 -0.  0.
   252  2.51 -0.  0.
   253  2.52  0.  0.
   254  2.53  0.  0.
   255  2.54  0.  0.
   256  2.55  0.  0.
   257  2.56  0.  0.
   258  2.57  0.  0.
   259  2.58  0.  0.
   260  2.59  0.  0.
   261  2.60  0.  0.
   262  2.61  0.  0.
   263  2.62  0.  0.
   264  2.63  0.  0.
   265  2.64  0.  0.
   266  2.65  0.  0.
   267  2.66  0.  0.
   268  2.67  0.  0.
   269  2.68  0.  0.
   270  2.69  0.  0.
   271  2.70  0.  0.
   272  2.71  0.  0.
   273  2.72  0.  0.
   274  2.73  0.  0.
   275  2.74  0.  0.
   276  2.75  0.  0.
   277  2.76  0.  0.
   278  2.77  0.  0.
   279  2.78  0.  0.
   280  2.79  0.  0.
   281  2.80  0.  0.
   282  2.81  0.  0.
   283  2.82  0.  0.
   284  2.83  0.  0.
   285  2.84  0.  0.
   286  2.85  0.  0.
   287  2.86  0.  0.
   288  2.87  0.  0.
   289  2.88  0.  0.
   290  2.89  0.  0.
   291  2.90  0.  0.
   292  2.91  0.  0.
   293  2.92  0.  0.
   294  2.93  0.  0.
   295  2.94  0.  0.
   296  2.95  0.  0.
   297  2.96  0.  0.
   298  2.97  0.  0.
   299  2.98  0.  0.
   300  2.99  0.  0.
   301  3.00  0.  0.
   302  3.01  0.  0.
   303  3.02  0.  0.
   304  3.03  0.  0.
   305  3.04  0.  0.
   306  3.05  0.  0.
   307  3.06  0.  0.
   308  3.07  0.  0.
   309  3.08  0.  0.
   310  3.09  0.  0.
   311  3.10  0.  0.
   312  3.11  0.  0.
   313  3.12  0.  0.
   314  3.13  0.  0.
   315  3.14  0.  0.
   316  3.15  0.  0.
   317  3.16  0.  0.
   318  3.17  0.  0.
   319  3.18  0.  0.
   320  3.19  0.  0.
   321  3.20  0.  0.
   322  3.21  0.  0.
   323  3.22  0.  0.
   324  3.23  0.  0.
   325  3.24  0.  0.
   326  3.25  0.  0.
   327  3.26  0.  0.
   328  3.27  0.  0.
   329  3.28  0.  0.
   330  3.29  0.  0.
   331  3.30  0.  0.
   332  3.31  0.  0.
   333  3.32  0.  0.
   334  3.33  0.  0.
   335  3.34  0.  0.
   336  3.35  0.  0.
   337  3.36  0.  0.
   338  3.37  0.  0.
   339  3.38  0.  0.
   340  3.39  0.  0.
   341  3.40  0.  0.
   342  3.41  0.  0.
   343  3.42  0.  0.
   344  3.43  0.  0.
   345  3.44  0.  0.
   346  3.45  0.  0.
   347  3.46  0.  0.
   348  3.47  0.  0.
   349  3.48  0.  0.
   350  3.49  0.  0.
   351  3.50  0.  0.
   352  3.51  0.  0.
   353  3.52  0.  0.
   354  3.53  0.  0.
   355  3.54  0.  0.
   356  3.55  0.  0.
   357  3.56  0.  0.
   358  3.57  0.  0.
   359  3.58  0.  0.
   360  3.59  0.  0.
   361  3.60  0.  0.
   362  3.61  0.  0.
   363  3.62  0.  0.
   364  3.63  0.  0.
   365  3.64  0.  0.
   366  3.65  0.  0.
   367  3.66  0.  0.
   368  3.67  0.  0.
   369  3.68  0.  0.
   370  3.69  0.  0.
   371  3.70  0.  0.
   372  3.71  0.  0.
   373  3.72  0.  0.
   374  3.73  0.  0.
   375  3.74  0.  0.
   376  3.75  0.  0.
   377  3.76  0.  0.
   378  3.77  0.  0.
   379  3.78  0.  0.
   380  3.79  0.  0.
   381  3.80  0.  0.
   382  3.81  0.  0.
   383  3.82  0.  0.
   384  3.83  0.  0.
   385  3.84  0.  0.
   386  3.85  0.  0.
   387  3.86  0.  0.
   388  3.87  0.  0.
   389  3.88  0.  0.
   390  3.89  0.  0.
   391  3.90  0.  0.
   392  3.91  0.  0.
   393  3.92  0.  0.
   394  3.93  0.  0.
   395  3.94  0.  0.
   396  3.95  0.  0.
   397  3.96  0.  0.
   398  3.97  0.  0.
   399  3.98  0.  0.
   400  3.99  0.  0.
   401  4.00  0.  0.
   402  4.01  0.  0.
   403  4.02  0.  0.
   404  4.03  0.  0.
   405  4.04  0.  0.
   406  4.05  0.  0.
   407  4.06  0.  0.
   408  4.07  0.  0.
   409  4.08  0.  0.
   410  4.09  0.  0.
   411  4.10  0.  0.
   412  4.11  0.  0.
   413  4.12  0.  0.
   414  4.13  0.  0.
   415  4.14  0.  0.
   416  4.15  0.  0.
   417  4.16  0.  0.
   418  4.17  0.  0.
   419  4.18  0.  0.
   420  4.19  0.  0.
   421  4.20  0.  0.
   422  4.21  0.  0.
   423  4.22  0.  0.
   424  4.23  0.  0.
   425  4.24  0.  0.
   426  4.25  0.  0.
   427  4.26  0.  0.
   428  4.27  0.  0.
   429  4.28  0.  0.
   430  4.29  0.  0.
   431  4.30  0.  0.
   432  4.31  0.  0.
   433  4.32  0.  0.
   434  4.33  0.  0.
   435  4.34  0.  0.
   436  4.35  0.  0.
   437  4.36  0.  0.
   438  4.37  0.  0.
   439  4.38  0.  0.
   440  4.39  0.  0.
   441  4.40  0.  0.
   442  4.41  0.  0.
   443  4.42  0.  0.
   444  4.43  0.  0.
   445  4.44  0.  0.
   446  4.45  0.  0.
   447  4.46  0.  0.
   448  4.47  0.  0.
   449  4.48  0.  0.
   450  4.49  0.  0.
   451  4.50  0.  0.
   452  4.51  0.  0.
   453  4.52  0.  0.
   454  4.53  0.  0.
   455  4.54  0.  0.
   456  4.55  0.  0.
   457  4.56  0.  0.
   458  4.57  0.  0.
   459  4.58  0.  0.
   460  4.59  0.  0.
   461  4.60  0.  0.
   462  4.61  0.  0.
   463  4.62  0.  0.
   464  4.63  0.  0.
   465  4.64  0.  0.
   466  4.65  0.  0.
   467  4.66  0.  0.
   468  4.67  0.  0.
   469  4.68  0.  0.
   470  4.69  0.  0.
   471  4.70  0.  0.
   472  4.71  0.  0.
   473  4.72  0.  0.
   474  4.73  0.  0.
   475  4.74  0.  0.
   476  4.75  0.  0.
   477  4.76  0.  0.
   478  4.77  0.  0.
   479  4.78  0.  0.
   480  4.79  0.  0.
   481  4.80  0.  0.
   482  4.81  0.  0.
   483  4.82  0.  0.
   484  4.83  0.  0.
   485  4.84  0.  0.
   486  4.85  0.  0.
   487  4.86  0.  0.
   488  4.87  0.  0.
   489  4.88  0.  0.
   490  4.89  0.  0.
   491  4.90  0.  0.
   492  4.91  0.  0.
   493  4.92  0.  0.
   494  4.93  0.  0.
   495  4.94  0.  0.
   496  4.95  0.  0.
   497  4.96  0.  0.
   498  4.97  0.  0.
   499  4.98  0.  0.
   500  4.99  0.  0.
   501  5.00  0.  0.
   502  5.01  0.  0.
   503  5.02  0.  0.
   504  5.03  0.  0.
   505  5.04  0.  0.
   506  5.05  0.  0.
   507  5.06  0.  0.
   508  5.07  0.  0.
   509  5.08  0.  0.
   510  5.09  0.  0.
   511  5.10  0.  0.
   512  5.11  0.  0.
   513  5.12  0.  0.
   514  5.13  0.  0.
   515  5.14  0.  0.
   516  5.15  0.  0.
   517  5.16  0.  0.
   518  5.17  0.  0.
   519  5.18  0.  0.
   520  5.19  0.  0.
   521  5.20  0.  0.
   522  5.21  0.  0.
   523  5.22  0.  0.
   524  5.23  0.  0.
   525  5.24  0.  0.
   526  5.25  0.  0.
   527  5.26  0.  0.
   528  5.27  0.  0.
   529  5.28  0.  0.
   530  5.29  0.  0.
   531  5.30  0.  0.
   532  5.31  0.  0.
   533  5.32  0.  0.
   534  5.33  0.  0.
   535  5.34  0.  0.
   536  5.35  0.  0.
   537  5.36  0.  0.
   538  5.37  0.  0.
   539  5.38  0.  0.
   540  5.39  0.  0.
   541  5.40  0.  0.
   542  5.41  0.  0.
   543  5.42  0.  0.
   544  5.43  0.  0.
   545  5.44  0.  0.
   546  5.45  0.  0.
   547  5.46  0.  0.
   548  5.47  0.  0.
   549  5.48  0.  0.
   550  5.49  0.  0.
   551  5.50  0.  0.
   552  5.51  0.  0.
   553  5.52  0.  0.
   554  5.53  0.  0.
   555  5.54  0.  0.
   556  5.55  0.  0.
   557  5.56  0.  0.
   558  5.57  0.  0.
   559  5.58  0.  0.
   560  5.59  0.  0.
   561  5.60  0.  0.
   562  5.61  0.  0.
   563  5.62  0.  0.
   564  5.63  0.  0.
   565  5.64  0.  0.
   566  5.65  0.  0.
   567  5.66  0.  0.
   568  5.67  0.  0.
   569  5.68  0.  0.
   570  5.69  0.  0.
   571  5.70  0.  0.
   572  5.71  0.  0.
   573  5.72  0.  0.
   574  5.73  0.  0.
   575  5.74  0.  0.
   576  5.75  0.  0.
   577  5.76  0.  0.
   578  5.77  0.  0.
   579  5.78  0.  0.
   580  5.79  0.  0.
   581  5.80  0.  0.
   582  5.81  0.  0.
   583  5.82  0.  0.
   584  5.83  0.  0.
   585  5.84  0.  0.
   586  5.85  0.  0.
   587  5.86  0.  0.
   588  5.87  0.  0.
   589  5.88  0.  0.
   590  5.89  0.  0.
   591  5.90  0.  0.
   592  5.91  0.  0.
   593  5.92  0.  0.
   594  5.93  0.  0.
   595  5.94  0.  0.
   596  5.95  0.  0.
   597  5.96  0.  0.
   598  5.97  0.  0.
   599  5.98  0.  0.
   600  5.99  0.  0.
   1                         2.4436636457068E+00 -1.8845236263740E-01
     1  0.0000000000000E+00  9.8957175787007E-11 -4.6570186942874E-11
     2  1.0000000000000E-02  1.3047218621420E-03  1.4855166757762E-04
     3  2.0000000000000E-02  5.2144213406749E-03  5.9426123155947E-04
     4  3.0000000000000E-02  1.1715715139267E-02  1.3372901821636E-03
     5  4.0000000000000E-02  2.0786347804339E-02  2.3779003832056E-03
     6  5.0000000000000E-02  3.2395266607786E-02  3.7164432300977E-03
     7  6.0000000000000E-02  4.6502726027898E-02  5.3533446458368E-03
     8  7.0000000000000E-02  6.3060421474974E-02  7.2890860880452E-03
     9  8.0000000000000E-02  8.2011651809183E-02  9.5241817867022E-03
    10  9.0000000000000E-02  1.0329151010064E-01  1.2059152477257E-02
    11  1.0000000000000E-01  1.2682710198600E-01  1.4894495936171E-02
    12  1.1000000000000E-01  1.5253779088238E-01  1.8030654665747E-02
    13  1.2000000000000E-01  1.8033546922807E-01  2.1467981111589E-02
    14  1.3000000000000E-01  2.1012485483138E-01  2.5206700829497E-02
    15  1.4000000000000E-01  2.4180381132332E-01  2.9246874047680E-02
    16  1.5000000000000E-01  2.7526369162798E-01  3.3588356095591E-02
    17  1.6000000000000E-01  3.1038970328573E-01  3.8230757192012E-02
    18  1.7000000000000E-01  3.4706129439000E-01  4.3173402100619E-02
    19  1.8000000000000E-01  3.8515255882760E-01  4.8415290173922E-02
    20  1.9000000000000E-01  4.2453265944646E-01  5.3955056312388E-02
    21  2.0000000000000E-01  4.6506626771283E-01  5.9790933367614E-02
    22  2.1000000000000E-01  5.0661401836323E-01  6.5920716514858E-02
    23  2.2000000000000E-01  5.4903297750427E-01  7.2341730111594E-02
    24  2.3000000000000E-01  5.9217712256662E-01  7.9050797544906E-02
    25  2.4000000000000E-01  6.3589783247800E-01  8.6044214551577E-02
    26  2.5000000000000E-01  6.8004438638355E-01  9.3317726470669E-02
    27  2.6000000000000E-01  7.2446446921170E-01  1.0086650985950E-01
    28  2.7000000000000E-01  7.6900468235858E-01  1.0868515887000E-01
    29  2.8000000000000E-01  8.1351105774472E-01  1.1676767674430E-01
    30  2.9000000000000E-01  8.5782957348477E-01  1.2510747274579E-01
    31  3.0000000000000E-01  9.0180666940338E-01  1.3369736479497E-01
    32  3.1000000000000E-01  9.4528976062893E-01  1.4252958802956E-01
    33  3.2000000000000E-01  9.8812774750143E-01  1.5159580945437E-01
    34  3.3000000000000E-01  1.0301715200413E+00  1.6088714878983E-01
    35  3.4000000000000E-01  1.0712744552427E+00  1.7039420556938E-01
    36  3.5000000000000E-01  1.1112929054761E+00  1.8010709247451E-01
    37  3.6000000000000E-01  1.1500866763161E+00  1.9001547483393E-01
    38  3.7000000000000E-01  1.1875194921403E+00  2.0010861614961E-01
    39  3.8000000000000E-01  1.2234594478900E+00  2.1037542944848E-01
    40  3.9000000000000E-01  1.2577794454245E+00  2.2080453419457E-01
    41  4.0000000000000E-01  1.2903576129551E+00  2.3138431843318E-01
    42  4.1000000000000E-01  1.3210777061008E+00  2.4210300577637E-01
    43  4.2000000000000E-01  1.3498294891676E+00  2.5294872677899E-01
    44  4.3000000000000E-01  1.3765090953227E+00  2.6390959419658E-01
    45  4.4000000000000E-01  1.4010193644063E+00  2.7497378156126E-01
    46  4.5000000000000E-01  1.4232701571983E+00  2.8612960446076E-01
    47  4.6000000000000E-01  1.4431786450395E+00  2.9736560385763E-01
    48  4.7000000000000E-01  1.4606695737937E+00  3.0867063074388E-01
    49  4.8000000000000E-01  1.4756755012226E+00  3.2003393138732E-01
    50  4.9000000000000E-01  1.4881370069410E+00  3.3144523239492E-01
    51  5.0000000000000E-01  1.4980028742163E+00  3.4289482479108E-01
    52  5.1000000000000E-01  1.5052302429728E+00  3.5437364628986E-01
    53  5.2000000000000E-01  1.5097847334673E+00  3.6587336092619E-01
    54  5.3000000000000E-01  1.5116405402038E+00  3.7738643520542E-01
    55  5.4000000000000E-01  1.5107804957649E+00  3.8890620993142E-01
    56  5.5000000000000E-01  1.5071961043426E+00  4.0042696688187E-01
    57  5.6000000000000E-01  1.5008875448648E+00  4.1194398951566E-01
    58  5.7000000000000E-01  1.4918636437211E+00  4.2345361692048E-01
    59  5.8000000000000E-01  1.4801418172071E+00  4.3495329024084E-01
    60  5.9000000000000E-01  1.4657479839129E+00  4.4644159086450E-01
    61  6.0000000000000E-01  1.4487164473987E+00  4.5791826969274E-01
    62  6.1000000000000E-01  1.4290897496071E+00  4.6938426687251E-01
    63  6.2000000000000E-01  1.4069184955729E+00  4.8084172142971E-01
    64  6.3000000000000E-01  1.3822611501001E+00  4.9229397030943E-01
    65  6.4000000000000E-01  1.3551838071821E+00  5.0374553640280E-01
    66  6.5000000000000E-01  1.3257599330442E+00  5.1520210521926E-01
    67  6.6000000000000E-01  1.2940700837895E+00  5.2667048994719E-01
    68  6.7000000000000E-01  1.2602015987286E+00  5.3815858473533E-01