Au    ONCVPSP-3.3.0  r_core=   1.45604   1.56407   1.56407   1.60183
79.0000     19.0000      180423    zatom,zion,pspd
8      11   3     4   500     0    pspcod,pspxc,lmax,lloc,mmax,r2well
4.99000000  0.00000000  0.00000000    rchrg fchrg qchrg
2     4     4     2    nproj
3     1           extension_switch
4     4     2    nprojso
0                        -1.9364110591368E-01  9.4395721617082E+00
1  0.0000000000000E+00 -5.4611125066550E-09 -5.1442494708454E-10
2  1.0000000000000E-02  4.7424822906244E-02  8.0704993819457E-02
3  2.0000000000000E-02  9.4374227758799E-02  1.6119046146982E-01
4  3.0000000000000E-02  1.4037921659242E-01  2.4123791015779E-01
5  4.0000000000000E-02  1.8498351755685E-01  3.2063090658486E-01
6  5.0000000000000E-02  2.2774968339864E-01  3.9915608694072E-01
7  6.0000000000000E-02  2.6826489614034E-01  4.7660414180944E-01
8  7.0000000000000E-02  3.0614639597051E-01  5.5277076743950E-01
9  8.0000000000000E-02  3.4104645781939E-01  6.2745757534350E-01
10  9.0000000000000E-02  3.7265684573334E-01  7.0047295279375E-01
11  1.0000000000000E-01  4.0071268286805E-01  7.7163286745828E-01
12  1.1000000000000E-01  4.2499568357348E-01  8.4076161016756E-01
13  1.2000000000000E-01  4.4533670350377E-01  9.0769247060533E-01
14  1.3000000000000E-01  4.6161757380713E-01  9.7226834156644E-01
15  1.4000000000000E-01  4.7377219607386E-01  1.0343422483084E+00
16  1.5000000000000E-01  4.8178688568398E-01  1.0937778004307E+00
17  1.6000000000000E-01  4.8569996232993E-01  1.1504495646323E+00
18  1.7000000000000E-01  4.8560059762513E-01  1.2042433576155E+00
19  1.8000000000000E-01  4.8162694067801E-01  1.2550564593077E+00
20  1.9000000000000E-01  4.7396355314848E-01  1.3027977474481E+00
21  2.0000000000000E-01  4.6283819544950E-01  1.3473877554356E+00
22  2.1000000000000E-01  4.4851801526139E-01  1.3887586561253E+00
23  2.2000000000000E-01  4.3130519824859E-01  1.4268541750060E+00
24  2.3000000000000E-01  4.1153214868116E-01  1.4616294368694E+00
25  2.4000000000000E-01  3.8955627445111E-01  1.4930507506838E+00
26  2.5000000000000E-01  3.6575445663973E-01  1.5210953379163E+00
27  2.6000000000000E-01  3.4051728825419E-01  1.5457510099859E+00
28  2.7000000000000E-01  3.1424316994718E-01  1.5670158008885E+00
29  2.8000000000000E-01  2.8733235241813E-01  1.5848975612954E+00
30  2.9000000000000E-01  2.6018101574384E-01  1.5994135205973E+00
31  3.0000000000000E-01  2.3317547509409E-01  1.6105898234423E+00
32  3.1000000000000E-01  2.0668660016953E-01  1.6184610473019E+00
33  3.2000000000000E-01  1.8106453228792E-01  1.6230697074904E+00
34  3.3000000000000E-01  1.5663377839223E-01  1.6244657558694E+00
35  3.4000000000000E-01  1.3368875543168E-01  1.6227060791961E+00
36  3.5000000000000E-01  1.1248985165939E-01  1.6178540027164E+00
37  3.6000000000000E-01  9.3260063501650E-02  1.6099788041836E+00
38  3.7000000000000E-01  7.6182257898658E-02  1.5991552429941E+00
39  3.8000000000000E-01  6.1397100523596E-02  1.5854631085941E+00
40  3.9000000000000E-01  4.9001680193905E-02  1.5689867917184E+00
41  4.0000000000000E-01  3.9048849243391E-02  1.5498148814057E+00
42  4.1000000000000E-01  3.1547288777481E-02  1.5280397900784E+00
43  4.2000000000000E-01  2.6462296745171E-02  1.5037574083136E+00
44  4.3000000000000E-01  2.3717285788451E-02  1.4770667902566E+00
45  4.4000000000000E-01  2.3195967030454E-02  1.4480698699601E+00
46  4.5000000000000E-01  2.4745185496132E-02  1.4168712082796E+00
47  4.6000000000000E-01  2.8178362872439E-02  1.3835777693217E+00
48  4.7000000000000E-01  3.3279493954888E-02  1.3482987248483E+00
49  4.8000000000000E-01  3.9807634531019E-02  1.3111452844802E+00
50  4.9000000000000E-01  4.7501810741307E-02  1.2722305490416E+00
51  5.0000000000000E-01  5.6086273251022E-02  1.2316693839349E+00
52  5.1000000000000E-01  6.5276013960495E-02  1.1895783090548E+00
53  5.2000000000000E-01  7.4782458557669E-02  1.1460754014313E+00
54  5.3000000000000E-01  8.4319245050768E-02  1.1012802065529E+00
55  5.4000000000000E-01  9.3607996553323E-02  1.0553136541544E+00
56  5.5000000000000E-01  1.0238399606608E-01  1.0082979741700E+00
57  5.6000000000000E-01  1.1040167182604E-01  9.6035660854752E-01
58  5.7000000000000E-01  1.1743980395838E-01  9.1161411469564E-01
59  5.8000000000000E-01  1.2330636667103E-01  8.6219605648951E-01
60  5.9000000000000E-01  1.2784292499334E-01  8.1222887899420E-01
61  6.0000000000000E-01  1.3092851107894E-01  7.6183976336926E-01
62  6.1000000000000E-01  1.3248291221962E-01  7.1115645879125E-01
63  6.2000000000000E-01  1.3246931092649E-01  6.6030708866881E-01
64  6.3000000000000E-01  1.3089622658673E-01  6.0941992891873E-01
65  6.4000000000000E-01  1.2781871813648E-01  5.5862315661233E-01
66  6.5000000000000E-01  1.2333881789190E-01  5.0804456788832E-01
67  6.6000000000000E-01  1.1760517784712E-01  4.5781126464237E-01
68  6.7000000000000E-01  1.1081192132620E-01  4.0804931014290E-01
69  6.8000000000000E-01  1.0319670472718E-01  3.5888335437657E-01
70  6.9000000000000E-01  9.5038005957730E-02  3.1043623058191E-01
71  7.0000000000000E-01  8.6651667918074E-02  2.6282852507747E-01
72  7.1000000000000E-01  7.8386736926866E-02  2.1617812312457E-01
73  7.2000000000000E-01  7.0620647037090E-02  1.7059973416890E-01
74  7.3000000000000E-01  6.3753811654830E-02  1.2620440037343E-01
75  7.4000000000000E-01  5.8203693604210E-02  8.3098992878202E-02
76  7.5000000000000E-01  5.4398433568563E-02  4.1385700688722E-02
77  7.6000000000000E-01  5.2770124653442E-02  1.1615175013477E-03
78  7.7000000000000E-01  5.3747827416286E-02 -3.7482267892096E-02
79  7.8000000000000E-01  5.7750425067001E-02 -7.4460571719785E-02
80  7.9000000000000E-01  6.5179422541056E-02 -1.0969499978791E-01
81  8.0000000000000E-01  7.6411795707851E-02 -1.4311431031316E-01
82  8.1000000000000E-01  9.1792998052348E-02 -1.7465484886009E-01
83  8.2000000000000E-01  1.1163023171608E-01 -2.0426094930315E-01
84  8.3000000000000E-01  1.3618608779543E-01 -2.3188529491420E-01
85  8.4000000000000E-01  1.6567265727296E-01 -2.5748923394827E-01
86  8.5000000000000E-01  2.0024620893233E-01 -2.8104304446047E-01
87  8.6000000000000E-01  2.4000252412656E-01 -3.0252614353358E-01
88  8.7000000000000E-01  2.8497297040549E-01 -3.2192723662212E-01
89  8.8000000000000E-01  3.3512138685187E-01 -3.3924440332074E-01
90  8.9000000000000E-01  3.9034184363596E-01 -3.5448511653444E-01
91  9.0000000000000E-01  4.5045732690723E-01 -3.6766619275746E-01
92  9.1000000000000E-01  5.1521938784364E-01 -3.7881367194769E-01
93  9.2000000000000E-01  5.8430878163332E-01 -3.8796262630455E-01
94  9.3000000000000E-01  6.5733710854828E-01 -3.9515689810803E-01
95  9.4000000000000E-01  7.3384945526538E-01 -4.0044876764630E-01
96  9.5000000000000E-01  8.1332802039373E-01 -4.0389855313396E-01
97  9.6000000000000E-01  8.9519669397658E-01 -4.0557414539316E-01
98  9.7000000000000E-01  9.7882654676537E-01 -4.0555048092035E-01
99  9.8000000000000E-01  1.0635421714341E+00 -4.0390895778624E-01
100  9.9000000000000E-01  1.1486288050134E+00 -4.0073679959073E-01
101  1.0000000000000E+00  1.2333401497382E+00 -3.9612637341501E-01
102  1.0100000000000E+00  1.3169067980923E+00 -3.9017446838675E-01
103  1.0200000000000E+00  1.3985451580930E+00 -3.8298154204164E-01
104  1.0300000000000E+00  1.4774667660846E+00 -3.7465094216895E-01
105  1.0400000000000E+00  1.5528878671332E+00 -3.6528811223109E-01
106  1.0500000000000E+00  1.6240391375526E+00 -3.5499978874558E-01
107  1.0600000000000E+00  1.6901754202944E+00 -3.4389319921142E-01
108  1.0700000000000E+00  1.7505853416088E+00 -3.3207526925202E-01
109  1.0800000000000E+00  1.8046006773885E+00 -3.1965184760277E-01
110  1.0900000000000E+00  1.8516053391517E+00 -3.0672695742442E-01
111  1.1000000000000E+00  1.8910438535355E+00 -2.9340208213165E-01
112  1.1100000000000E+00  1.9224292135078E+00 -2.7977549361420E-01
113  1.1200000000000E+00  1.9453499880869E+00 -2.6594163014082E-01
114  1.1300000000000E+00  1.9594765851948E+00 -2.5199053071216E-01
115  1.1400000000000E+00  1.9645665749154E+00 -2.3800733179406E-01
116  1.1500000000000E+00  1.9604689883154E+00 -2.2407183184422E-01
117  1.1600000000000E+00  1.9471275255311E+00 -2.1025812784124E-01
118  1.1700000000000E+00  1.9245826184004E+00 -1.9663432728152E-01
119  1.1800000000000E+00  1.8929723107744E+00 -1.8326233796429E-01
120  1.1900000000000E+00  1.8525319314097E+00 -1.7019773713166E-01
121  1.2000000000000E+00  1.8035925580082E+00 -1.5748972002562E-01
122  1.2100000000000E+00  1.7465782858544E+00 -1.4518112698413E-01
123  1.2200000000000E+00  1.6820023274832E+00 -1.3330854737499E-01
124  1.2300000000000E+00  1.6104619933017E+00 -1.2190249718506E-01
125  1.2400000000000E+00  1.5326326192955E+00 -1.1098766606623E-01
126  1.2500000000000E+00  1.4492605199724E+00 -1.0058322888485E-01
127  1.2600000000000E+00  1.3611550619290E+00 -9.0703215740256E-02
128  1.2700000000000E+00  1.2691799725208E+00 -8.1356933228109E-02
129  1.2800000000000E+00  1.1742440034744E+00 -7.2549429390068E-02
130  1.2900000000000E+00  1.0772910832649E+00 -6.4281993919058E-02
131  1.3000000000000E+00  9.7929010669011E-01 -5.6552684284458E-02
132  1.3100000000000E+00  8.8122450909820E-01 -4.9356868502482E-02
133  1.3200000000000E+00  7.8408178520414E-01 -4.2687774503116E-02
134  1.3300000000000E+00  6.8884311389986E-01 -3.6537035959056E-02
135  1.3400000000000E+00  5.9647324963974E-01 -3.0895224491360E-02
136  1.3500000000000E+00  5.0791084688832E-01 -2.5752357806099E-02
137  1.3600000000000E+00  4.2405940561884E-01 -2.1098372978231E-02
138  1.3700000000000E+00  3.4577876060162E-01 -1.6923563113598E-02
139  1.3800000000000E+00  2.7387822976658E-01 -1.3218933156441E-02
140  1.3900000000000E+00  2.0910788532451E-01 -9.9766029318513E-03
141  1.4000000000000E+00  1.5215760960481E-01 -7.1898924196569E-03
142  1.4100000000000E+00  1.0367799799326E-01 -4.8546584029445E-03
143  1.4200000000000E+00  6.4135815822314E-02 -2.9651791876673E-03
144  1.4300000000000E+00  3.3772966931394E-02 -1.5154585608187E-03
145  1.4400000000000E+00  1.3605586396121E-02 -5.3996156383751E-04
146  1.4500000000000E+00  3.5370628894899E-03 -3.9659480025454E-05
147  1.4600000000000E+00  1.6683843297406E-04  9.1075074268651E-05
148  1.4700000000000E+00 -1.3287969147322E-04  2.9128786678923E-05
149  1.4800000000000E+00  1.1512192019151E-04 -1.8629218812204E-05
150  1.4900000000000E+00  2.3899526667079E-05 -3.3567910342297E-06
151  1.5000000000000E+00 -1.7684754043444E-05  3.7944690786632E-06
152  1.5100000000000E+00 -5.1849870704913E-07 -3.9902112087608E-08
153  1.5200000000000E+00 -2.5630827148720E-06 -1.9724719153242E-07
154  1.5300000000000E+00  0.0000000000000E+00  0.0000000000000E+00
155  1.5400000000000E+00  0.0000000000000E+00  0.0000000000000E+00
156  1.5500000000000E+00  0.0000000000000E+00  0.0000000000000E+00
157  1.5600000000000E+00  0.0000000000000E+00  0.0000000000000E+00
158  1.5700000000000E+00  0.0000000000000E+00  0.0000000000000E+00
159  1.5800000000000E+00  0.0000000000000E+00  0.0000000000000E+00
160  1.5900000000000E+00  0.0000000000000E+00  0.0000000000000E+00
161  1.6000000000000E+00  0.0000000000000E+00  0.0000000000000E+00
162  1.6100000000000E+00  0.0000000000000E+00  0.0000000000000E+00
163  1.6200000000000E+00  0.0000000000000E+00  0.0000000000000E+00
164  1.6300000000000E+00  0.0000000000000E+00  0.0000000000000E+00
165  1.6400000000000E+00  0.0000000000000E+00  0.0000000000000E+00
166  1.6500000000000E+00  0.0000000000000E+00  0.0000000000000E+00
167  1.6600000000000E+00  0.0000000000000E+00  0.0000000000000E+00
168  1.6700000000000E+00  0.0000000000000E+00  0.0000000000000E+00
169  1.6800000000000E+00  0.0000000000000E+00  0.0000000000000E+00
170  1.6900000000000E+00  0.0000000000000E+00  0.0000000000000E+00
171  1.7000000000000E+00  0.0000000000000E+00  0.0000000000000E+00
172  1.7100000000000E+00  0.0000000000000E+00  0.0000000000000E+00
173  1.7200000000000E+00  0.0000000000000E+00  0.0000000000000E+00
174  1.7300000000000E+00  0.0000000000000E+00  0.0000000000000E+00
175  1.7400000000000E+00  0.0000000000000E+00  0.0000000000000E+00
176  1.7500000000000E+00  0.0000000000000E+00  0.0000000000000E+00
177  1.7600000000000E+00  0.0000000000000E+00  0.0000000000000E+00
178  1.7700000000000E+00  0.0000000000000E+00  0.0000000000000E+00
179  1.7800000000000E+00  0.0000000000000E+00  0.0000000000000E+00
180  1.7900000000000E+00  0.0000000000000E+00  0.0000000000000E+00
181  1.8000000000000E+00  0.0000000000000E+00  0.0000000000000E+00
182  1.8100000000000E+00  0.0000000000000E+00  0.0000000000000E+00
183  1.8200000000000E+00  0.0000000000000E+00  0.0000000000000E+00
184  1.8300000000000E+00  0.0000000000000E+00  0.0000000000000E+00
185  1.8400000000000E+00  0.0000000000000E+00  0.0000000000000E+00
186  1.8500000000000E+00  0.0000000000000E+00  0.0000000000000E+00
187  1.8600000000000E+00  0.0000000000000E+00  0.0000000000000E+00
188  1.8700000000000E+00  0.0000000000000E+00  0.0000000000000E+00
189  1.8800000000000E+00  0.0000000000000E+00  0.0000000000000E+00
190  1.8900000000000E+00  0.0000000000000E+00  0.0000000000000E+00
191  1.9000000000000E+00  0.0000000000000E+00  0.0000000000000E+00
192  1.9100000000000E+00  0.0000000000000E+00  0.0000000000000E+00
193  1.9200000000000E+00  0.0000000000000E+00  0.0000000000000E+00
194  1.9300000000000E+00  0.0000000000000E+00  0.0000000000000E+00
195  1.9400000000000E+00  0.0000000000000E+00  0.0000000000000E+00
196  1.9500000000000E+00  0.0000000000000E+00  0.0000000000000E+00
197  1.9600000000000E+00  0.0000000000000E+00  0.0000000000000E+00
198  1.9700000000000E+00  0.0000000000000E+00  0.0000000000000E+00
199  1.9800000000000E+00  0.0000000000000E+00  0.0000000000000E+00
200  1.9900000000000E+00  0.0000000000000E+00  0.0000000000000E+00
201  2.0000000000000E+00  0.0000000000000E+00  0.0000000000000E+00
202  2.0100000000000E+00  0.0000000000000E+00  0.0000000000000E+00
203  2.0200000000000E+00  0.0000000000000E+00  0.0000000000000E+00
204  2.0300000000000E+00  0.0000000000000E+00  0.0000000000000E+00
205  2.0400000000000E+00  0.0000000000000E+00  0.0000000000000E+00
206  2.0500000000000E+00  0.0000000000000E+00  0.0000000000000E+00
207  2.0600000000000E+00  0.0000000000000E+00  0.0000000000000E+00
208  2.0700000000000E+00  0.0000000000000E+00  0.0000000000000E+00
209  2.0800000000000E+00  0.0000000000000E+00  0.0000000000000E+00
210  2.0900000000000E+00  0.0000000000000E+00  0.0000000000000E+00
211  2.1000000000000E+00  0.0000000000000E+00  0.0000000000000E+00
212  2.1100000000000E+00  0.0000000000000E+00  0.0000000000000E+00
213  2.1200000000000E+00  0.0000000000000E+00  0.0000000000000E+00
214  2.1300000000000E+00  0.0000000000000E+00  0.0000000000000E+00
215  2.1400000000000E+00  0.0000000000000E+00  0.0000000000000E+00
216  2.1500000000000E+00  0.0000000000000E+00  0.0000000000000E+00
217  2.1600000000000E+00  0.0000000000000E+00  0.0000000000000E+00
218  2.1700000000000E+00  0.0000000000000E+00  0.0000000000000E+00
219  2.1800000000000E+00  0.0000000000000E+00  0.0000000000000E+00
220  2.1900000000000E+00  0.0000000000000E+00  0.0000000000000E+00
221  2.2000000000000E+00  0.0000000000000E+00  0.0000000000000E+00
222  2.2100000000000E+00  0.0000000000000E+00  0.0000000000000E+00
223  2.2200000000000E+00  0.0000000000000E+00  0.0000000000000E+00
224  2.2300000000000E+00  0.0000000000000E+00  0.0000000000000E+00
225  2.2400000000000E+00  0.0000000000000E+00  0.0000000000000E+00
226  2.2500000000000E+00  0.0000000000000E+00  0.0000000000000E+00
227  2.2600000000000E+00  0.0000000000000E+00  0.0000000000000E+00
228  2.2700000000000E+00  0.0000000000000E+00  0.0000000000000E+00
229  2.2800000000000E+00  0.0000000000000E+00  0.0000000000000E+00
230  2.2900000000000E+00  0.0000000000000E+00  0.0000000000000E+00
231  2.3000000000000E+00  0.0000000000000E+00  0.0000000000000E+00
232  2.3100000000000E+00  0.0000000000000E+00  0.0000000000000E+00
233  2.3200000000000E+00  0.0000000000000E+00  0.0000000000000E+00
234  2.3300000000000E+00  0.0000000000000E+00  0.0000000000000E+00
235  2.3400000000000E+00  0.0000000000000E+00  0.0000000000000E+00
236  2.3500000000000E+00  0.0000000000000E+00  0.0000000000000E+00
237  2.3600000000000E+00  0.0000000000000E+00  0.0000000000000E+00
238  2.3700000000000E+00  0.0000000000000E+00  0.0000000000000E+00
239  2.3800000000000E+00  0.0000000000000E+00  0.0000000000000E+00
240  2.3900000000000E+00  0.0000000000000E+00  0.0000000000000E+00
241  2.4000000000000E+00  0.0000000000000E+00  0.0000000000000E+00
242  2.4100000000000E+00  0.0000000000000E+00  0.0000000000000E+00
243  2.4200000000000E+00  0.0000000000000E+00  0.0000000000000E+00
244  2.4300000000000E+00  0.0000000000000E+00  0.0000000000000E+00
245  2.4400000000000E+00  0.0000000000000E+00  0.0000000000000E+00
246  2.4500000000000E+00  0.0000000000000E+00  0.0000000000000E+00
247  2.4600000000000E+00  0.0000000000000E+00  0.0000000000000E+00
248  2.4700000000000E+00  0.0000000000000E+00  0.0000000000000E+00
249  2.4800000000000E+00  0.0000000000000E+00  0.0000000000000E+00
250  2.4900000000000E+00  0.0000000000000E+00  0.0000000000000E+00
251  2.5000000000000E+00  0.0000000000000E+00  0.0000000000000E+00
252  2.5100000000000E+00  0.0000000000000E+00  0.0000000000000E+00
253  2.5200000000000E+00  0.0000000000000E+00  0.0000000000000E+00
254  2.5300000000000E+00  0.0000000000000E+00  0.0000000000000E+00
255  2.5400000000000E+00  0.0000000000000E+00  0.0000000000000E+00
256  2.5500000000000E+00  0.0000000000000E+00  0.0000000000000E+00
257  2.5600000000000E+00  0.0000000000000E+00  0.0000000000000E+00
258  2.5700000000000E+00  0.0000000000000E+00  0.0000000000000E+00
259  2.5800000000000E+00  0.0000000000000E+00  0.0000000000000E+00
260  2.5900000000000E+00  0.0000000000000E+00  0.0000000000000E+00
261  2.6000000000000E+00  0.0000000000000E+00  0.0000000000000E+00
262  2.6100000000000E+00  0.0000000000000E+00  0.0000000000000E+00
263  2.6200000000000E+00  0.0000000000000E+00  0.0000000000000E+00
264  2.6300000000000E+00  0.0000000000000E+00  0.0000000000000E+00
265  2.6400000000000E+00  0.0000000000000E+00  0.0000000000000E+00
266  2.6500000000000E+00  0.0000000000000E+00  0.0000000000000E+00
267  2.6600000000000E+00  0.0000000000000E+00  0.0000000000000E+00
268  2.6700000000000E+00  0.0000000000000E+00  0.0000000000000E+00
269  2.6800000000000E+00  0.0000000000000E+00  0.0000000000000E+00
270  2.6900000000000E+00  0.0000000000000E+00  0.0000000000000E+00
271  2.7000000000000E+00  0.0000000000000E+00  0.0000000000000E+00
272  2.7100000000000E+00  0.0000000000000E+00  0.0000000000000E+00
273  2.7200000000000E+00  0.0000000000000E+00  0.0000000000000E+00
274  2.7300000000000E+00  0.0000000000000E+00  0.0000000000000E+00
275  2.7400000000000E+00  0.0000000000000E+00  0.0000000000000E+00
276  2.7500000000000E+00  0.0000000000000E+00  0.0000000000000E+00
277  2.7600000000000E+00  0.0000000000000E+00  0.0000000000000E+00
278  2.7700000000000E+00  0.0000000000000E+00  0.0000000000000E+00
279  2.7800000000000E+00  0.0000000000000E+00  0.0000000000000E+00
280  2.7900000000000E+00  0.0000000000000E+00  0.0000000000000E+00
281  2.8000000000000E+00  0.0000000000000E+00  0.0000000000000E+00
282  2.8100000000000E+00  0.0000000000000E+00  0.0000000000000E+00
283  2.8200000000000E+00  0.0000000000000E+00  0.0000000000000E+00
284  2.8300000000000E+00  0.0000000000000E+00  0.0000000000000E+00
285  2.8400000000000E+00  0.0000000000000E+00  0.0000000000000E+00
286  2.8500000000000E+00  0.0000000000000E+00  0.0000000000000E+00
287  2.8600000000000E+00  0.0000000000000E+00  0.0000000000000E+00
288  2.8700000000000E+00  0.0000000000000E+00  0.0000000000000E+00
289  2.8800000000000E+00  0.0000000000000E+00  0.0000000000000E+00
290  2.8900000000000E+00  0.0000000000000E+00  0.0000000000000E+00
291  2.9000000000000E+00  0.0000000000000E+00  0.0000000000000E+00
292  2.9100000000000E+00  0.0000000000000E+00  0.0000000000000E+00
293  2.9200000000000E+00  0.0000000000000E+00  0.0000000000000E+00
294  2.9300000000000E+00  0.0000000000000E+00  0.0000000000000E+00
295  2.9400000000000E+00  0.0000000000000E+00  0.0000000000000E+00
296  2.9500000000000E+00  0.0000000000000E+00  0.0000000000000E+00
297  2.9600000000000E+00  0.0000000000000E+00  0.0000000000000E+00
298  2.9700000000000E+00  0.0000000000000E+00  0.0000000000000E+00
299  2.9800000000000E+00  0.0000000000000E+00  0.0000000000000E+00
300  2.9900000000000E+00  0.0000000000000E+00  0.0000000000000E+00
301  3.0000000000000E+00  0.0000000000000E+00  0.0000000000000E+00
302  3.0100000000000E+00  0.0000000000000E+00  0.0000000000000E+00
303  3.0200000000000E+00  0.0000000000000E+00  0.0000000000000E+00
304  3.0300000000000E+00  0.0000000000000E+00  0.0000000000000E+00
305  3.0400000000000E+00  0.0000000000000E+00  0.0000000000000E+00
306  3.0500000000000E+00  0.0000000000000E+00  0.0000000000000E+00
307  3.0600000000000E+00  0.0000000000000E+00  0.0000000000000E+00
308  3.0700000000000E+00  0.0000000000000E+00  0.0000000000000E+00
309  3.0800000000000E+00  0.0000000000000E+00  0.0000000000000E+00
310  3.0900000000000E+00  0.0000000000000E+00  0.0000000000000E+00
311  3.1000000000000E+00  0.0000000000000E+00  0.0000000000000E+00
312  3.1100000000000E+00  0.0000000000000E+00  0.0000000000000E+00
313  3.1200000000000E+00  0.0000000000000E+00  0.0000000000000E+00
314  3.1300000000000E+00  0.0000000000000E+00  0.0000000000000E+00
315  3.1400000000000E+00  0.0000000000000E+00  0.0000000000000E+00
316  3.1500000000000E+00  0.0000000000000E+00  0.0000000000000E+00
317  3.1600000000000E+00  0.0000000000000E+00  0.0000000000000E+00
318  3.1700000000000E+00  0.0000000000000E+00  0.0000000000000E+00
319  3.1800000000000E+00  0.0000000000000E+00  0.0000000000000E+00
320  3.1900000000000E+00  0.0000000000000E+00  0.0000000000000E+00
321  3.2000000000000E+00  0.0000000000000E+00  0.0000000000000E+00
322  3.2100000000000E+00  0.0000000000000E+00  0.0000000000000E+00
323  3.2200000000000E+00  0.0000000000000E+00  0.0000000000000E+00
324  3.2300000000000E+00  0.0000000000000E+00  0.0000000000000E+00
325  3.2400000000000E+00  0.0000000000000E+00  0.0000000000000E+00
326  3.2500000000000E+00  0.0000000000000E+00  0.0000000000000E+00
327  3.2600000000000E+00  0.0000000000000E+00  0.0000000000000E+00
328  3.2700000000000E+00  0.0000000000000E+00  0.0000000000000E+00
329  3.2800000000000E+00  0.0000000000000E+00  0.0000000000000E+00
330  3.2900000000000E+00  0.0000000000000E+00  0.0000000000000E+00
331  3.3000000000000E+00  0.0000000000000E+00  0.0000000000000E+00
332  3.3100000000000E+00  0.0000000000000E+00  0.0000000000000E+00
333  3.3200000000000E+00  0.0000000000000E+00  0.0000000000000E+00
334  3.3300000000000E+00  0.0000000000000E+00  0.0000000000000E+00
335  3.3400000000000E+00  0.0000000000000E+00  0.0000000000000E+00
336  3.3500000000000E+00  0.0000000000000E+00  0.0000000000000E+00
337  3.3600000000000E+00  0.0000000000000E+00  0.0000000000000E+00
338  3.3700000000000E+00  0.0000000000000E+00  0.0000000000000E+00
339  3.3800000000000E+00  0.0000000000000E+00  0.0000000000000E+00
340  3.3900000000000E+00  0.0000000000000E+00  0.0000000000000E+00
341  3.4000000000000E+00  0.0000000000000E+00  0.0000000000000E+00
342  3.4100000000000E+00  0.0000000000000E+00  0.0000000000000E+00
343  3.4200000000000E+00  0.0000000000000E+00  0.0000000000000E+00
344  3.4300000000000E+00  0.0000000000000E+00  0.0000000000000E+00
345  3.4400000000000E+00  0.0000000000000E+00  0.0000000000000E+00
346  3.4500000000000E+00  0.0000000000000E+00  0.0000000000000E+00
347  3.4600000000000E+00  0.0000000000000E+00  0.0000000000000E+00
348  3.4700000000000E+00  0.0000000000000E+00  0.0000000000000E+00
349  3.4800000000000E+00  0.0000000000000E+00  0.0000000000000E+00
350  3.4900000000000E+00  0.0000000000000E+00  0.0000000000000E+00
351  3.5000000000000E+00  0.0000000000000E+00  0.0000000000000E+00
352  3.5100000000000E+00  0.0000000000000E+00  0.0000000000000E+00
353  3.5200000000000E+00  0.0000000000000E+00  0.0000000000000E+00
354  3.5300000000000E+00  0.0000000000000E+00  0.0000000000000E+00
355  3.5400000000000E+00  0.0000000000000E+00  0.0000000000000E+00
356  3.5500000000000E+00  0.0000000000000E+00  0.0000000000000E+00
357  3.5600000000000E+00  0.0000000000000E+00  0.0000000000000E+00
358  3.5700000000000E+00  0.0000000000000E+00  0.0000000000000E+00
359  3.5800000000000E+00  0.0000000000000E+00  0.0000000000000E+00
360  3.5900000000000E+00  0.0000000000000E+00  0.0000000000000E+00
361  3.6000000000000E+00  0.0000000000000E+00  0.0000000000000E+00
362  3.6100000000000E+00  0.0000000000000E+00  0.0000000000000E+00
363  3.6200000000000E+00  0.0000000000000E+00  0.0000000000000E+00
364  3.6300000000000E+00  0.0000000000000E+00  0.0000000000000E+00
365  3.6400000000000E+00  0.0000000000000E+00  0.0000000000000E+00
366  3.6500000000000E+00  0.0000000000000E+00  0.0000000000000E+00
367  3.6600000000000E+00  0.0000000000000E+00  0.0000000000000E+00
368  3.6700000000000E+00  0.0000000000000E+00  0.0000000000000E+00
369  3.6800000000000E+00  0.0000000000000E+00  0.0000000000000E+00
370  3.6900000000000E+00  0.0000000000000E+00  0.0000000000000E+00
371  3.7000000000000E+00  0.0000000000000E+00  0.0000000000000E+00
372  3.7100000000000E+00  0.0000000000000E+00  0.0000000000000E+00
373  3.7200000000000E+00  0.0000000000000E+00  0.0000000000000E+00
374  3.7300000000000E+00  0.0000000000000E+00  0.0000000000000E+00
375  3.7400000000000E+00  0.0000000000000E+00  0.0000000000000E+00
376  3.7500000000000E+00  0.0000000000000E+00  0.0000000000000E+00
377  3.7600000000000E+00  0.0000000000000E+00  0.0000000000000E+00
378  3.7700000000000E+00  0.0000000000000E+00  0.0000000000000E+00
379  3.7800000000000E+00  0.0000000000000E+00  0.0000000000000E+00
380  3.7900000000000E+00  0.0000000000000E+00  0.0000000000000E+00
381  3.8000000000000E+00  0.0000000000000E+00  0.0000000000000E+00
382  3.8100000000000E+00  0.0000000000000E+00  0.0000000000000E+00
383  3.8200000000000E+00  0.0000000000000E+00  0.0000000000000E+00
384  3.8300000000000E+00  0.0000000000000E+00  0.0000000000000E+00
385  3.8400000000000E+00  0.0000000000000E+00  0.0000000000000E+00
386  3.8500000000000E+00  0.0000000000000E+00  0.0000000000000E+00
387  3.8600000000000E+00  0.0000000000000E+00  0.0000000000000E+00
388  3.8700000000000E+00  0.0000000000000E+00  0.0000000000000E+00
389  3.8800000000000E+00  0.0000000000000E+00  0.0000000000000E+00
390  3.8900000000000E+00  0.0000000000000E+00  0.0000000000000E+00
391  3.9000000000000E+00  0.0000000000000E+00  0.0000000000000E+00
392  3.9100000000000E+00  0.0000000000000E+00  0.0000000000000E+00
393  3.9200000000000E+00  0.0000000000000E+00  0.0000000000000E+00
394  3.9300000000000E+00  0.0000000000000E+00  0.0000000000000E+00
395  3.9400000000000E+00  0.0000000000000E+00  0.0000000000000E+00
396  3.9500000000000E+00  0.0000000000000E+00  0.0000000000000E+00
397  3.9600000000000E+00  0.0000000000000E+00  0.0000000000000E+00
398  3.9700000000000E+00  0.0000000000000E+00  0.0000000000000E+00
399  3.9800000000000E+00  0.0000000000000E+00  0.0000000000000E+00
400  3.9900000000000E+00  0.0000000000000E+00  0.0000000000000E+00
401  4.0000000000000E+00  0.0000000000000E+00  0.0000000000000E+00
402  4.0100000000000E+00  0.0000000000000E+00  0.0000000000000E+00
403  4.0200000000000E+00  0.0000000000000E+00  0.0000000000000E+00
404  4.0300000000000E+00  0.0000000000000E+00  0.0000000000000E+00
405  4.0400000000000E+00  0.0000000000000E+00  0.0000000000000E+00
406  4.0500000000000E+00  0.0000000000000E+00  0.0000000000000E+00
407  4.0600000000000E+00  0.0000000000000E+00  0.0000000000000E+00
408  4.0700000000000E+00  0.0000000000000E+00  0.0000000000000E+00
409  4.0800000000000E+00  0.0000000000000E+00  0.0000000000000E+00
410  4.0900000000000E+00  0.0000000000000E+00  0.0000000000000E+00
411  4.1000000000000E+00  0.0000000000000E+00  0.0000000000000E+00
412  4.1100000000000E+00  0.0000000000000E+00  0.0000000000000E+00
413  4.1200000000000E+00  0.0000000000000E+00  0.0000000000000E+00
414  4.1300000000000E+00  0.0000000000000E+00  0.0000000000000E+00
415  4.1400000000000E+00  0.0000000000000E+00  0.0000000000000E+00
416  4.1500000000000E+00  0.0000000000000E+00  0.0000000000000E+00
417  4.1600000000000E+00  0.0000000000000E+00  0.0000000000000E+00
418  4.1700000000000E+00  0.0000000000000E+00  0.0000000000000E+00
419  4.1800000000000E+00  0.0000000000000E+00  0.0000000000000E+00
420  4.1900000000000E+00  0.0000000000000E+00  0.0000000000000E+00
421  4.2000000000000E+00  0.0000000000000E+00  0.0000000000000E+00
422  4.2100000000000E+00  0.0000000000000E+00  0.0000000000000E+00
423  4.2200000000000E+00  0.0000000000000E+00  0.0000000000000E+00
424  4.2300000000000E+00  0.0000000000000E+00  0.0000000000000E+00
425  4.2400000000000E+00  0.0000000000000E+00  0.0000000000000E+00
426  4.2500000000000E+00  0.0000000000000E+00  0.0000000000000E+00
427  4.2600000000000E+00  0.0000000000000E+00  0.0000000000000E+00
428  4.2700000000000E+00  0.0000000000000E+00  0.0000000000000E+00
429  4.2800000000000E+00  0.0000000000000E+00  0.0000000000000E+00
430  4.2900000000000E+00  0.0000000000000E+00  0.0000000000000E+00
431  4.3000000000000E+00  0.0000000000000E+00  0.0000000000000E+00
432  4.3100000000000E+00  0.0000000000000E+00  0.0000000000000E+00
433  4.3200000000000E+00  0.0000000000000E+00  0.0000000000000E+00
434  4.3300000000000E+00  0.0000000000000E+00  0.0000000000000E+00
435  4.3400000000000E+00  0.0000000000000E+00  0.0000000000000E+00
436  4.3500000000000E+00  0.0000000000000E+00  0.0000000000000E+00
437  4.3600000000000E+00  0.0000000000000E+00  0.0000000000000E+00
438  4.3700000000000E+00  0.0000000000000E+00  0.0000000000000E+00
439  4.3800000000000E+00  0.0000000000000E+00  0.0000000000000E+00
440  4.3900000000000E+00  0.0000000000000E+00  0.0000000000000E+00
441  4.4000000000000E+00  0.0000000000000E+00  0.0000000000000E+00
442  4.4100000000000E+00  0.0000000000000E+00  0.0000000000000E+00
443  4.4200000000000E+00  0.0000000000000E+00  0.0000000000000E+00