F     ONCVPSP-4.0.1  r_core=   1.10355   1.10355   1.10355
      9.0000      7.0000      200307    zatom,zion,pspd
     8       2   2     4  1200     0    pspcod,pspxc,lmax,lloc,mmax,r2well
  5.99500000  0.00000000  0.00000000    rchrg fchrg qchrg
     2     2     1     0     0    nproj
     1     1           extension_switch
   0                         1.4504911337946E+01  1.3266242060022E+00
     1  0.0000000000000E+00  1.4624967903387E-12 -1.1288803225540E-11
     2  5.0000000000000E-03  6.9930926046893E-02 -3.4933481574218E-02
     3  1.0000000000000E-02  1.3977447219077E-01 -6.9777007151396E-02
     4  1.5000000000000E-02  2.0944338699272E-01 -1.0444075099725E-01
     5  2.0000000000000E-02  2.7885067580994E-01 -1.3883514805026E-01
     6  2.5000000000000E-02  3.4790972886289E-01 -1.7287102462335E-01
     7  3.0000000000000E-02  4.1653444890461E-01 -2.0645972953595E-01
     8  3.5000000000000E-02  4.8463937835757E-01 -2.3951326580690E-01
     9  4.0000000000000E-02  5.5213982578251E-01 -2.7194442302717E-01
    10  4.5000000000000E-02  6.1895199154149E-01 -3.0366691051791E-01
    11  5.0000000000000E-02  6.8499309251573E-01 -3.3459549136284E-01
    12  5.5000000000000E-02  7.5018148573619E-01 -3.6464611738515E-01
    13  6.0000000000000E-02  8.1443679078237E-01 -3.9373606511812E-01
    14  6.5000000000000E-02  8.7768001080187E-01 -4.2178407279541E-01
    15  7.0000000000000E-02  9.3983365200039E-01 -4.4871047836158E-01
    16  7.5000000000000E-02  1.0008218414484E+00 -4.7443735847666E-01
    17  8.0000000000000E-02  1.0605704430479E+00 -4.9888866845951E-01
    18  8.5000000000000E-02  1.1190071714982E+00 -5.2199038308505E-01
    19  9.0000000000000E-02  1.1760617040985E+00 -5.4367063811891E-01
    20  9.5000000000000E-02  1.2316657902183E+00 -5.6385987244066E-01
    21  1.0000000000000E-01  1.2857533582667E+00 -5.8249097057436E-01
    22  1.0500000000000E-01  1.3382606199864E+00 -5.9949940541101E-01
    23  1.1000000000000E-01  1.3891261718956E+00 -6.1482338087410E-01
    24  1.1500000000000E-01  1.4382910936983E+00 -6.2840397424616E-01
    25  1.2000000000000E-01  1.4856990434817E+00 -6.4018527783998E-01
    26  1.2500000000000E-01  1.5312963495144E+00 -6.5011453966615E-01
    27  1.3000000000000E-01  1.5750320984619E+00 -6.5814230271608E-01
    28  1.3500000000000E-01  1.6168582198294E+00 -6.6422254244885E-01
    29  1.4000000000000E-01  1.6567295664442E+00 -6.6831280204088E-01
    30  1.4500000000000E-01  1.6946039907891E+00 -6.7037432492907E-01
    31  1.5000000000000E-01  1.7304424169968E+00 -6.7037218415214E-01
    32  1.5500000000000E-01  1.7642089083182E+00 -6.6827540797084E-01
    33  1.6000000000000E-01  1.7958707298768E+00 -6.6405710122637E-01
    34  1.6500000000000E-01  1.8253984065256E+00 -6.5769456187640E-01
    35  1.7000000000000E-01  1.8527657756235E+00 -6.4916939213266E-01
    36  1.7500000000000E-01  1.8779500345552E+00 -6.3846760361042E-01
    37  1.8000000000000E-01  1.9009317828180E+00 -6.2557971588986E-01
    38  1.8500000000000E-01  1.9216950585102E+00 -6.1050084788268E-01
    39  1.9000000000000E-01  1.9402273690574E+00 -5.9323080139408E-01
    40  1.9500000000000E-01  1.9565197160217E+00 -5.7377413627031E-01
    41  2.0000000000000E-01  1.9705666138478E+00 -5.5214023652667E-01
    42  2.0500000000000E-01  1.9823661024068E+00 -5.2834336685789E-01
    43  2.1000000000000E-01  1.9919197532107E+00 -5.0240271894545E-01
    44  2.1500000000000E-01  1.9992326691785E+00 -4.7434244699232E-01
    45  2.2000000000000E-01  2.0043134778497E+00 -4.4419169193462E-01
    46  2.2500000000000E-01  2.0071743179514E+00 -4.1198459380414E-01
    47  2.3000000000000E-01  2.0078308192384E+00 -3.7776029174433E-01
    48  2.3500000000000E-01  2.0063020755421E+00 -3.4156291121217E-01
    49  2.4000000000000E-01  2.0026106109777E+00 -3.0344153793625E-01
    50  2.4500000000000E-01  1.9967823392744E+00 -2.6345017823917E-01
    51  2.5000000000000E-01  1.9888465162123E+00 -2.2164770537657E-01
    52  2.5500000000000E-01  1.9788356851653E+00 -1.7809779159126E-01
    53  2.6000000000000E-01  1.9667856157682E+00 -1.3286882563137E-01
    54  2.6500000000000E-01  1.9527352357447E+00 -8.6033815533532E-02
    55  2.7000000000000E-01  1.9367265559524E+00 -3.7670276530349E-02
    56  2.7500000000000E-01  1.9188045887206E+00  1.2139896002333E-02
    57  2.8000000000000E-01  1.8990172595776E+00  6.3310568579510E-02
    58  2.8500000000000E-01  1.8774153124826E+00  1.1575152658124E-01
    59  2.9000000000000E-01  1.8540522087015E+00  1.6936864606019E-01
    60  2.9500000000000E-01  1.8289840194829E+00  2.2406408020867E-01
    61  3.0000000000000E-01  1.8022693127156E+00  2.7973646024364E-01
    62  3.0500000000000E-01  1.7739690337662E+00  3.3628111039904E-01
    63  3.1000000000000E-01  1.7441463807194E+00  3.9359027664492E-01
    64  3.1500000000000E-01  1.7128666742620E+00  4.5155336868469E-01
    65  3.2000000000000E-01  1.6801972224739E+00  5.1005721471033E-01
    66  3.2500000000000E-01  1.6462071808077E+00  5.6898632832910E-01
    67  3.3000000000000E-01  1.6109674075594E+00  6.2822318700573E-01
    68  3.3500000000000E-01  1.5745503151506E+00  6.8764852129935E-01
    69  3.4000000000000E-01  1.5370297175618E+00  7.4714161410897E-01
    70  3.4500000000000E-01  1.4984806742719E+00  8.0658060908002E-01
    71  3.5000000000000E-01  1.4589793310792E+00  8.6584282726444E-01
    72  3.5500000000000E-01  1.4186027581894E+00  9.2480509107040E-01
    73  3.6000000000000E-01  1.3774287859756E+00  9.8334405448532E-01
    74  3.6500000000000E-01  1.3355358388250E+00  1.0413365385049E+00
    75  3.7000000000000E-01  1.2930027675014E+00  1.0986598706575E+00
    76  3.7500000000000E-01  1.2499086804607E+00  1.1551922274710E+00
    77  3.8000000000000E-01  1.2063327745677E+00  1.2108129786930E+00
    78  3.8500000000000E-01  1.1623541656694E+00  1.2654030320463E+00
    79  3.9000000000000E-01  1.1180517194864E+00  1.3188451772715E+00
    80  3.9500000000000E-01  1.0735038832876E+00  1.3710244281938E+00
    81  4.0000000000000E-01  1.0287885188166E+00  1.4218283615308E+00
    82  4.0500000000000E-01  9.8398273694010E-01  1.4711474511550E+00
    83  4.1000000000000E-01  9.3916273448589E-01  1.5188753965169E+00
    84  4.1500000000000E-01  8.9440363373741E-01  1.5649094439431E+00
    85  4.2000000000000E-01  8.4977932504601E-01  1.6091506995293E+00
    86  4.2500000000000E-01  8.0536231301662E-01  1.6515044323691E+00
    87  4.3000000000000E-01  7.6122356671419E-01  1.6918803668774E+00
    88  4.3500000000000E-01  7.1743237432825E-01  1.7301929630007E+00
    89  4.4000000000000E-01  6.7405620272157E-01  1.7663616831381E+00
    90  4.4500000000000E-01  6.3116056227488E-01  1.8003112446413E+00
    91  4.5000000000000E-01  5.8880887742495E-01  1.8319718568073E+00
    92  4.5500000000000E-01  5.4706236327567E-01  1.8612794413336E+00
    93  4.6000000000000E-01  5.0597990864394E-01  1.8881758352609E+00
    94  4.6500000000000E-01  4.6561796588110E-01  1.9126089754973E+00
    95  4.7000000000000E-01  4.2603044778963E-01  1.9345330640848E+00
    96  4.7500000000000E-01  3.8726863193137E-01  1.9539087134441E+00
    97  4.8000000000000E-01  3.4938107259872E-01  1.9707030709143E+00
    98  4.8500000000000E-01  3.1241352069535E-01  1.9848899219851E+00
    99  4.9000000000000E-01  2.7640885174504E-01  1.9964497717070E+00
   100  4.9500000000000E-01  2.4140700222021E-01  2.0053699038556E+00
   101  5.0000000000000E-01  2.0744491435243E-01  2.0116444175194E+00
   102  5.0500000000000E-01  1.7455648955787E-01  2.0152742408724E+00
   103  5.1000000000000E-01  1.4277255058031E-01  2.0162671219957E+00
   104  5.1500000000000E-01  1.1212081242373E-01  2.0146375967044E+00
   105  5.2000000000000E-01  8.2625862115436E-02  2.0104069334399E+00
   106  5.2500000000000E-01  5.4309147309503E-02  2.0036030553842E+00
   107  5.3000000000000E-01  2.7188973708938E-02  1.9942604400518E+00
   108  5.3500000000000E-01  1.2805112538804E-03  1.9824199967141E+00
   109  5.4000000000000E-01 -2.3404191007846E-02  1.9681289221054E+00
   110  5.4500000000000E-01 -4.6856181481909E-02  1.9514405349554E+00
   111  5.5000000000000E-01 -6.9069574164478E-02  1.9324140899835E+00
   112  5.5500000000000E-01 -9.0041508528377E-02  1.9111145720783E+00
   113  5.6000000000000E-01 -1.0977210136000E-01  1.8876124714707E+00
   114  5.6500000000000E-01 -1.2826439077594E-01  1.8619835407894E+00
   115  5.7000000000000E-01 -1.4552427267452E-01  1.8343085349606E+00
   116  5.7500000000000E-01 -1.6156042990218E-01  1.8046729349869E+00
   117  5.8000000000000E-01 -1.7638425443828E-01  1.7731666567016E+00
   118  5.8500000000000E-01 -1.9000976292348E-01  1.7398837456542E+00
   119  5.9000000000000E-01 -2.0245350587749E-01  1.7049220593339E+00
   120  5.9500000000000E-01 -2.1373447096999E-01  1.6683829379815E+00
   121  6.0000000000000E-01 -2.2387398072535E-01  1.6303708652781E+00
   122  6.0500000000000E-01 -2.3289558505626E-01  1.5909931202279E+00
   123  6.1000000000000E-01 -2.4082494903392E-01  1.5503594215744E+00
   124  6.1500000000000E-01 -2.4768973631278E-01  1.5085815661022E+00
   125  6.2000000000000E-01 -2.5351948863613E-01  1.4657730621829E+00
   126  6.2500000000000E-01 -2.5834550185481E-01  1.4220487599202E+00
   127  6.3000000000000E-01 -2.6220069889477E-01  1.3775244792384E+00
   128  6.3500000000000E-01 -2.6511950011130E-01  1.3323166372388E+00
   129  6.4000000000000E-01 -2.6713769146592E-01  1.2865418761210E+00
   130  6.4500000000000E-01 -2.6829229095979E-01  1.2403166929301E+00
   131  6.5000000000000E-01 -2.6862141375122E-01  1.1937570723465E+00
   132  6.5500000000000E-01 -2.6816413637781E-01  1.1469781236834E+00
   133  6.6000000000000E-01 -2.6696036049344E-01  1.1000937231987E+00
   134  6.6500000000000E-01 -2.6505067651852E-01  1.0532161627595E+00
   135  6.7000000000000E-01 -2.6247622758783E-01  1.0064558058256E+00
   136  6.7500000000000E-01 -2.5927857416407E-01  9.5992075163717E-01
   137  6.8000000000000E-01 -2.5549955966712E-01  9.1371650840695E-01
   138  6.8500000000000E-01 -2.5118117744965E-01  8.6794567622381E-01
   139  6.9000000000000E-01 -2.4636543942743E-01  8.2270764027936E-01
   140  6.9500000000000E-01 -2.4109424665050E-01  7.7809827492741E-01
   141  7.0000000000000E-01 -2.3540926207603E-01  7.3420965897992E-01
   142  7.0500000000000E-01 -2.2935178577843E-01  6.9112980253632E-01
   143  7.1000000000000E-01 -2.2296263280506E-01  6.4894238552991E-01
   144  7.1500000000000E-01 -2.1628201385779E-01  6.0772650806280E-01
   145  7.2000000000000E-01 -2.0934941895225E-01  5.6755645248612E-01
   146  7.2500000000000E-01 -2.0220350417684E-01  5.2850145706677E-01
   147  7.3000000000000E-01 -1.9488198164358E-01  4.9062550096641E-01
   148  7.3500000000000E-01 -1.8742151269287E-01  4.5398710014478E-01
   149  7.4000000000000E-01 -1.7985760438346E-01  4.1863911368506E-01
   150  7.4500000000000E-01 -1.7222450926874E-01  3.8462855992969E-01
   151  7.5000000000000E-01 -1.6455512843036E-01  3.5199644170567E-01
   152  7.5500000000000E-01 -1.5688091770990E-01  3.2077757981465E-01
   153  7.6000000000000E-01 -1.4923179705053E-01  2.9100045386245E-01
   154  7.6500000000000E-01 -1.4163606283184E-01  2.6268704940744E-01
   155  7.7000000000000E-01 -1.3412030305303E-01  2.3585271031636E-01
   156  7.7500000000000E-01 -1.2670931519365E-01  2.1050599513345E-01
   157  7.8000000000000E-01 -1.1942602655486E-01  1.8664853618978E-01
   158  7.8500000000000E-01 -1.1229141686051E-01  1.6427490010988E-01
   159  7.9000000000000E-01 -1.0532444285118E-01  1.4337244815700E-01
   160  7.9500000000000E-01 -9.8541964540258E-02  1.2392119456069E-01
   161  8.0000000000000E-01 -9.1958675087015E-02  1.0589367578079E-01
   162  8.0500000000000E-01 -8.5587020829878E-02  8.9254743122357E-02
   163  8.1000000000000E-01 -7.9437236612754E-02  7.3962100561947E-02
   164  8.1500000000000E-01 -7.3517734561067E-02  5.9969071820330E-02
   165  8.2000000000000E-01 -6.7835417095927E-02  4.7226678760730E-02
   166  8.2500000000000E-01 -6.2395730753336E-02  3.5683929880460E-02
   167  8.3000000000000E-01 -5.7202727323787E-02  2.5288136381700E-02
   168  8.3500000000000E-01 -5.2259125640705E-02  1.5985210303904E-02
   169  8.4000000000000E-01 -4.7566376078667E-02  7.7199602535947E-03
   170  8.4500000000000E-01 -4.3124727475419E-02  4.3638387894217E-04
   171  8.5000000000000E-01 -3.8933296016877E-02 -5.9220448290378E-03
   172  8.5500000000000E-01 -3.4990135692183E-02 -1.1412094842997E-02
   173  8.6000000000000E-01 -3.1292309931665E-02 -1.6090505389021E-02
   174  8.6500000000000E-01 -2.7835964048083E-02 -2.0013722529499E-02
   175  8.7000000000000E-01 -2.4616398111001E-02 -2.3237646276324E-02
   176  8.7500000000000E-01 -2.1628139895796E-02 -2.5817389390709E-02
   177  8.8000000000000E-01 -1.8865017561509E-02 -2.7807048941514E-02
   178  8.8500000000000E-01 -1.6320231726792E-02 -2.9259491601175E-02
   179  8.9000000000000E-01 -1.3986426629303E-02 -3.0226153562117E-02
   180  8.9500000000000E-01 -1.1855760071480E-02 -3.0756855855471E-02
   181  9.0000000000000E-01 -9.9199718744697E-03 -3.0899635748882E-02
   182  9.0500000000000E-01 -8.1704505820657E-03 -3.0700594791485E-02
   183  9.1000000000000E-01 -6.5982981770621E-03 -3.0203763965005E-02
   184  9.1500000000000E-01 -5.1943925946223E-03 -2.9450986285130E-02
   185  9.2000000000000E-01 -3.9494478391887E-03 -2.8481817085728E-02
   186  9.2500000000000E-01 -2.8540715345788E-03 -2.7333442103280E-02
   187  9.3000000000000E-01 -1.8988197599655E-03 -2.6040613365700E-02
   188  9.3500000000000E-01 -1.0742490479063E-03 -2.4635602776739E-02
   189  9.4000000000000E-01 -3.7096544400230E-04 -2.3148173176008E-02
   190  9.4500000000000E-01  2.2032944903304E-04 -2.1605566546373E-02
   191  9.5000000000000E-01  7.0879549707862E-04 -2.0032508934751E-02
   192  9.5500000000000E-01  1.1034141615630E-03 -1.8451231549888E-02
   193  9.6000000000000E-01  1.4129517373660E-03 -1.6881507404021E-02
   194  9.6500000000000E-01  1.6459256901329E-03 -1.5340702772932E-02
   195  9.7000000000000E-01  1.8105740606072E-03 -1.3843842660120E-02
   196  9.7500000000000E-01  1.9148278845911E-03 -1.2403689371600E-02
   197  9.8000000000000E-01  1.9662865585847E-03 -1.1030833232588E-02
   198  9.8500000000000E-01  1.9721960639794E-03 -9.7337944098165E-03
   199  9.9000000000000E-01  1.9394299468829E-03 -8.5191347432713E-03
   200  9.9500000000000E-01  1.8744729359647E-03 -7.3915784382816E-03
   201  1.0000000000000E+00  1.7834070682873E-03 -6.3541404262120E-03
   202  1.0050000000000E+00  1.6719001807762E-03 -5.4082611635191E-03
   203  1.0100000000000E+00  1.5451966158042E-03 -4.5539466137186E-03
   204  1.0150000000000E+00  1.4081099808035E-03 -3.7899121369193E-03
   205  1.0200000000000E+00  1.2650177953408E-03 -3.1137290017823E-03
   206  1.0250000000000E+00  1.1198578542919E-03 -2.5219722346336E-03
   207  1.0300000000000E+00  9.7612647600115E-04 -2.0103662319389E-03
   208  1.0350000000000E+00  8.3687580874902E-04 -1.5739504787922E-03
   209  1.0400000000000E+00  7.0471776462633E-04 -1.2071613983173E-03
   210  1.0450000000000E+00  5.8182472001252E-04 -9.0406609916015E-04
   211  1.0500000000000E+00  4.6989191914834E-04 -6.5884507583978E-04
   212  1.0550000000000E+00  3.6976395985592E-04 -4.6679360432571E-04
   213  1.0600000000000E+00  2.8197284480267E-04 -3.2082709708704E-04
   214  1.0650000000000E+00  2.0690899984221E-04 -2.1236989602602E-04
   215  1.0700000000000E+00  1.4464608459469E-04 -1.3423941603866E-04
   216  1.0750000000000E+00  9.4932066451566E-05 -8.0007603472302E-05
   217  1.0800000000000E+00  5.7168145850586E-05 -4.4103919177071E-05
   218  1.0850000000000E+00  3.0389174954203E-05 -2.1776957755233E-05
   219  1.0900000000000E+00  1.3246989138463E-05 -9.0653420568485E-06
   220  1.0950000000000E+00  3.9841467843403E-06 -2.7547623294894E-06
   221  1.1000000000000E+00  5.0494591741819E-07 -4.2154178576829E-07
   222  1.1050000000000E+00 -3.5568717547457E-08  1.2121239583149E-08
   223  1.1100000000000E+00 -1.1818731436031E-09  1.0500122488734E-09
   224  1.1150  0. -0.
   225  1.1200 -0.  0.
   226  1.1250 -0.  0.
   227  1.1300 -0.  0.
   228  1.1350  0.  0.
   229  1.1400  0.  0.
   230  1.1450  0.  0.
   231  1.1500  0.  0.
   232  1.1550  0.  0.
   233  1.1600  0.  0.
   234  1.1650  0.  0.
   235  1.1700  0.  0.
   236  1.1750  0.  0.
   237  1.1800  0.  0.
   238  1.1850  0.  0.
   239  1.1900  0.  0.
   240  1.1950  0.  0.
   241  1.2000  0.  0.
   242  1.2050  0.  0.
   243  1.2100  0.  0.
   244  1.2150  0.  0.
   245  1.2200  0.  0.
   246  1.2250  0.  0.
   247  1.2300  0.  0.
   248  1.2350  0.  0.
   249  1.2400  0.  0.
   250  1.2450  0.  0.
   251  1.2500  0.  0.
   252  1.2550  0.  0.
   253  1.2600  0.  0.
   254  1.2650  0.  0.
   255  1.2700  0.  0.
   256  1.2750  0.  0.
   257  1.2800  0.  0.
   258  1.2850  0.  0.
   259  1.2900  0.  0.
   260  1.2950  0.  0.
   261  1.3000  0.  0.
   262  1.3050  0.  0.
   263  1.3100  0.  0.
   264  1.3150  0.  0.
   265  1.3200  0.  0.
   266  1.3250  0.  0.
   267  1.3300  0.  0.
   268  1.3350  0.  0.
   269  1.3400  0.  0.
   270  1.3450  0.  0.
   271  1.3500  0.  0.
   272  1.3550  0.  0.
   273  1.3600  0.  0.
   274  1.3650  0.  0.
   275  1.3700  0.  0.
   276  1.3750  0.  0.
   277  1.3800  0.  0.
   278  1.3850  0.  0.
   279  1.3900  0.  0.
   280  1.3950  0.  0.
   281  1.4000  0.  0.
   282  1.4050  0.  0.
   283  1.4100  0.  0.
   284  1.4150  0.  0.
   285  1.4200  0.  0.
   286  1.4250  0.  0.
   287  1.4300  0.  0.
   288  1.4350  0.  0.
   289  1.4400  0.  0.
   290  1.4450  0.  0.
   291  1.4500  0.  0.
   292  1.4550  0.  0.
   293  1.4600  0.  0.
   294  1.4650  0.  0.
   295  1.4700  0.  0.
   296  1.4750  0.  0.
   297  1.4800  0.  0.
   298  1.4850  0.  0.
   299  1.4900  0.  0.
   300  1.4950  0.  0.
   301  1.5000  0.  0.
   302  1.5050  0.  0.
   303  1.5100  0.  0.
   304  1.5150  0.  0.
   305  1.5200  0.  0.
   306  1.5250  0.  0.
   307  1.5300  0.  0.
   308  1.5350  0.  0.
   309  1.5400  0.  0.
   310  1.5450  0.  0.
   311  1.5500  0.  0.
   312  1.5550  0.  0.
   313  1.5600  0.  0.
   314  1.5650  0.  0.
   315  1.5700  0.  0.
   316  1.5750  0.  0.
   317  1.5800  0.  0.
   318  1.5850  0.  0.
   319  1.5900  0.  0.
   320  1.5950  0.  0.
   321  1.6000  0.  0.
   322  1.6050  0.  0.
   323  1.6100  0.  0.
   324  1.6150  0.  0.
   325  1.6200  0.  0.
   326  1.6250  0.  0.
   327  1.6300  0.  0.
   328  1.6350  0.  0.
   329  1.6400  0.  0.
   330  1.6450  0.  0.
   331  1.6500  0.  0.
   332  1.6550  0.  0.
   333  1.6600  0.  0.
   334  1.6650  0.  0.
   335  1.6700  0.  0.
   336  1.6750  0.  0.
   337  1.6800  0.  0.
   338  1.6850  0.  0.
   339  1.6900  0.  0.
   340  1.6950  0.  0.
   341  1.7000  0.  0.
   342  1.7050  0.  0.
   343  1.7100  0.  0.
   344  1.7150  0.  0.
   345  1.7200  0.  0.
   346  1.7250  0.  0.
   347  1.7300  0.  0.
   348  1.7350  0.  0.
   349  1.7400  0.  0.
   350  1.7450  0.  0.
   351  1.7500  0.  0.
   352  1.7550  0.  0.
   353  1.7600  0.  0.
   354  1.7650  0.  0.
   355  1.7700  0.  0.
   356  1.7750  0.  0.
   357  1.7800  0.  0.
   358  1.7850  0.  0.
   359  1.7900  0.  0.
   360  1.7950  0.  0.
   361  1.8000  0.  0.
   362  1.8050  0.  0.
   363  1.8100  0.  0.
   364  1.8150  0.  0.
   365  1.8200  0.  0.
   366  1.8250  0.  0.
   367  1.8300  0.  0.
   368  1.8350  0.  0.
   369  1.8400  0.  0.
   370  1.8450  0.  0.
   371  1.8500  0.  0.
   372  1.8550  0.  0.
   373  1.8600  0.  0.
   374  1.8650  0.  0.
   375  1.8700  0.  0.
   376  1.8750  0.  0.
   377  1.8800  0.  0.
   378  1.8850  0.  0.
   379  1.8900  0.  0.
   380  1.8950  0.  0.
   381  1.9000  0.  0.
   382  1.9050  0.  0.
   383  1.9100  0.  0.
   384  1.9150  0.  0.
   385  1.9200  0.  0.
   386  1.9250  0.  0.
   387  1.9300  0.  0.
   388  1.9350  0.  0.
   389  1.9400  0.  0.
   390  1.9450  0.  0.
   391  1.9500  0.  0.
   392  1.9550  0.  0.
   393  1.9600  0.  0.
   394  1.9650  0.  0.
   395  1.9700  0.  0.
   396  1.9750  0.  0.
   397  1.9800  0.  0.
   398  1.9850  0.  0.
   399  1.9900  0.  0.
   400  1.9950  0.  0.
   401  2.0000  0.  0.
   402  2.0050  0.  0.
   403  2.0100  0.  0.
   404  2.0150  0.  0.
   405  2.0200  0.  0.
   406  2.0250  0.  0.
   407  2.0300  0.  0.
   408  2.0350  0.  0.
   409  2.0400  0.  0.
   410  2.0450  0.  0.
   411  2.0500  0.  0.
   412  2.0550  0.  0.
   413  2.0600  0.  0.
   414  2.0650  0.  0.
   415  2.0700  0.  0.
   416  2.0750  0.  0.
   417  2.0800  0.  0.
   418  2.0850  0.  0.
   419  2.0900  0.  0.
   420  2.0950  0.  0.
   421  2.1000  0.  0.
   422  2.1050  0.  0.
   423  2.1100  0.  0.
   424  2.1150  0.  0.
   425  2.1200  0.  0.
   426  2.1250  0.  0.
   427  2.1300  0.  0.
   428  2.1350  0.  0.
   429  2.1400  0.  0.
   430  2.1450  0.  0.
   431  2.1500  0.  0.
   432  2.1550  0.  0.
   433  2.1600  0.  0.
   434  2.1650  0.  0.
   435  2.1700  0.  0.
   436  2.1750  0.  0.
   437  2.1800  0.  0.
   438  2.1850  0.  0.
   439  2.1900  0.  0.
   440  2.1950  0.  0.
   441  2.2000  0.  0.
   442  2.2050  0.  0.
   443  2.2100  0.  0.
   444  2.2150  0.  0.
   445  2.2200  0.  0.
   446  2.2250  0.  0.
   447  2.2300  0.  0.
   448  2.2350  0.  0.
   449  2.2400  0.  0.
   450  2.2450  0.  0.
   451  2.2500  0.  0.
   452  2.2550  0.  0.
   453  2.2600  0.  0.
   454  2.2650  0.  0.
   455  2.2700  0.  0.
   456  2.2750  0.  0.
   457  2.2800  0.  0.
   458  2.2850  0.  0.
   459  2.2900  0.  0.
   460  2.2950  0.  0.
   461  2.3000  0.  0.
   462  2.3050  0.  0.
   463  2.3100  0.  0.
   464  2.3150  0.  0.
   465  2.3200  0.  0.
   466  2.3250  0.  0.
   467  2.3300  0.  0.
   468  2.3350  0.  0.
   469  2.3400  0.  0.
   470  2.3450  0.  0.
   471  2.3500  0.  0.
   472  2.3550  0.  0.
   473  2.3600  0.  0.
   474  2.3650  0.  0.
   475  2.3700  0.  0.
   476  2.3750  0.  0.
   477  2.3800  0.  0.
   478  2.3850  0.  0.
   479  2.3900  0.  0.
   480  2.3950  0.  0.
   481  2.4000  0.  0.
   482  2.4050  0.  0.
   483  2.4100  0.  0.
   484  2.4150  0.  0.
   485  2.4200  0.  0.
   486  2.4250  0.  0.
   487  2.4300  0.  0.
   488  2.4350  0.  0.
   489  2.4400  0.  0.
   490  2.4450  0.  0.
   491  2.4500  0.  0.
   492  2.4550  0.  0.
   493  2.4600  0.  0.
   494  2.4650  0.  0.
   495  2.4700  0.  0.
   496  2.4750  0.  0.
   497  2.4800  0.  0.
   498  2.4850  0.  0.
   499  2.4900  0.  0.
   500  2.4950  0.  0.
   501  2.5000  0.  0.
   502  2.5050  0.  0.
   503  2.5100  0.  0.
   504  2.5150  0.  0.
   505  2.5200  0.  0.
   506  2.5250  0.  0.
   507  2.5300  0.  0.
   508  2.5350  0.  0.
   509  2.5400  0.  0.
   510  2.5450  0.  0.
   511  2.5500  0.  0.
   512  2.5550  0.  0.
   513  2.5600  0.  0.
   514  2.5650  0.  0.
   515  2.5700  0.  0.
   516  2.5750  0.  0.
   517  2.5800  0.  0.
   518  2.5850  0.  0.
   519  2.5900  0.  0.
   520  2.5950  0.  0.
   521  2.6000  0.  0.
   522  2.6050  0.  0.
   523  2.6100  0.  0.
   524  2.6150  0.  0.
   525  2.6200  0.  0.
   526  2.6250  0.  0.
   527  2.6300  0.  0.
   528  2.6350  0.  0.
   529  2.6400  0.  0.
   530  2.6450  0.  0.
   531  2.6500  0.  0.
   532  2.6550  0.  0.
   533  2.6600  0.  0.
   534  2.6650  0.  0.
   535  2.6700  0.  0.
   536  2.6750  0.  0.
   537  2.6800  0.  0.
   538  2.6850  0.  0.
   539  2.6900  0.  0.
   540  2.6950  0.  0.
   541  2.7000  0.  0.
   542  2.7050  0.  0.
   543  2.7100  0.  0.
   544  2.7150  0.  0.
   545  2.7200  0.  0.
   546  2.7250  0.  0.
   547  2.7300  0.  0.
   548  2.7350  0.  0.
   549  2.7400  0.  0.
   550  2.7450  0.  0.
   551  2.7500  0.  0.
   552  2.7550  0.  0.
   553  2.7600  0.  0.
   554  2.7650  0.  0.
   555  2.7700  0.  0.
   556  2.7750  0.  0.
   557  2.7800  0.  0.
   558  2.7850  0.  0.
   559  2.7900  0.  0.
   560  2.7950  0.  0.
   561  2.8000  0.  0.
   562  2.8050  0.  0.
   563  2.8100  0.  0.
   564  2.8150  0.  0.
   565  2.8200  0.  0.
   566  2.8250  0.  0.
   567  2.8300  0.  0.
   568  2.8350  0.  0.
   569  2.8400  0.  0.
   570  2.8450  0.  0.
   571  2.8500  0.  0.
   572  2.8550  0.  0.
   573  2.8600  0.  0.
   574  2.8650  0.  0.
   575  2.8700  0.  0.
   576  2.8750  0.  0.
   577  2.8800  0.  0.
   578  2.8850  0.  0.
   579  2.8900  0.  0.
   580  2.8950  0.  0.
   581  2.9000  0.  0.
   582  2.9050  0.  0.
   583  2.9100  0.  0.
   584  2.9150  0.  0.
   585  2.9200  0.  0.
   586  2.9250  0.  0.
   587  2.9300  0.  0.
   588  2.9350  0.  0.
   589  2.9400  0.  0.
   590  2.9450  0.  0.
   591  2.9500  0.  0.
   592  2.9550  0.  0.
   593  2.9600  0.  0.
   594  2.9650  0.  0.
   595  2.9700  0.  0.
   596  2.9750  0.  0.
   597  2.9800  0.  0.
   598  2.9850  0.  0.
   599  2.9900  0.  0.
   600  2.9950  0.  0.
   601  3.0000  0.  0.
   602  3.0050  0.  0.
   603  3.0100  0.  0.
   604  3.0150  0.  0.
   605  3.0200  0.  0.
   606  3.0250  0.  0.
   607  3.0300  0.  0.
   608  3.0350  0.  0.
   609  3.0400  0.  0.
   610  3.0450  0.  0.
   611  3.0500  0.  0.
   612  3.0550  0.  0.
   613  3.0600  0.  0.
   614  3.0650  0.  0.
   615  3.0700  0.  0.
   616  3.0750  0.  0.
   617  3.0800  0.  0.
   618  3.0850  0.  0.
   619  3.0900  0.  0.
   620  3.0950  0.  0.
   621  3.1000  0.  0.
   622  3.1050  0.  0.
   623  3.1100  0.  0.
   624  3.1150  0.  0.
   625  3.1200  0.  0.
   626  3.1250  0.  0.
   627  3.1300  0.  0.
   628  3.1350  0.  0.
   629  3.1400  0.  0.
   630  3.1450  0.  0.
   631  3.1500  0.  0.
   632  3.1550  0.  0.
   633  3.1600  0.  0.
   634  3.1650  0.  0.
   635  3.1700  0.  0.
   636  3.1750  0.  0.
   637  3.1800  0.  0.
   638  3.1850  0.  0.
   639  3.1900  0.  0.
   640  3.1950  0.  0.
   641  3.2000  0.  0.
   642  3.2050  0.  0.
   643  3.2100  0.  0.
   644  3.2150  0.  0.
   645  3.2200  0.  0.
   646  3.2250  0.  0.
   647  3.2300  0.  0.
   648  3.2350  0.  0.
   649  3.2400  0.  0.
   650  3.2450  0.  0.
   651  3.2500  0.  0.
   652  3.2550  0.  0.
   653  3.2600  0.  0.
   654  3.2650  0.  0.
   655  3.2700  0.  0.
   656  3.2750  0.  0.
   657  3.2800  0.  0.
   658  3.2850  0.  0.
   659  3.2900  0.  0.
   660  3.2950  0.  0.
   661  3.3000  0.  0.
   662  3.3050  0.  0.
   663  3.3100  0.  0.
   664  3.3150  0.  0.
   665  3.3200  0.  0.
   666  3.3250  0.  0.
   667  3.3300  0.  0.
   668  3.3350  0.  0.
   669  3.3400  0.  0.
   670  3.3450  0.  0.
   671  3.3500  0.  0.
   672  3.3550  0.  0.
   673  3.3600  0.  0.
   674  3.3650  0.  0.
   675  3.3700  0.  0.
   676  3.3750  0.  0.
   677  3.3800  0.  0.
   678  3.3850  0.  0.
   679  3.3900  0.  0.
   680  3.3950  0.  0.
   681  3.4000  0.  0.
   682  3.4050  0.  0.
   683  3.4100  0.  0.
   684  3.4150  0.  0.
   685  3.4200  0.  0.
   686  3.4250  0.  0.
   687  3.4300  0.  0.
   688  3.4350  0.  0.
   689  3.4400  0.  0.
   690  3.4450  0.  0.
   691  3.4500  0.  0.
   692  3.4550  0.  0.
   693  3.4600  0.  0.
   694  3.4650  0.  0.
   695  3.4700  0.  0.
   696  3.4750  0.  0.
   697  3.4800  0.  0.
   698  3.4850  0.  0.
   699  3.4900  0.  0.
   700  3.4950  0.  0.
   701  3.5000  0.  0.
   702  3.5050  0.  0.
   703  3.5100  0.  0.
   704  3.5150  0.  0.
   705  3.5200  0.  0.
   706  3.5250  0.  0.
   707  3.5300  0.  0.
   708  3.5350  0.  0.
   709  3.5400  0.  0.
   710  3.5450  0.  0.
   711  3.5500  0.  0.
   712  3.5550  0.  0.
   713  3.5600  0.  0.
   714  3.5650  0.  0.
   715  3.5700  0.  0.
   716  3.5750  0.  0.
   717  3.5800  0.  0.
   718  3.5850  0.  0.
   719  3.5900  0.  0.
   720  3.5950  0.  0.
   721  3.6000  0.  0.
   722  3.6050  0.  0.
   723  3.6100  0.  0.
   724  3.6150  0.  0.
   725  3.6200  0.  0.
   726  3.6250  0.  0.
   727  3.6300  0.  0.
   728  3.6350  0.  0.
   729  3.6400  0.  0.
   730  3.6450  0.  0.
   731  3.6500  0.  0.
   732  3.6550  0.  0.
   733  3.6600  0.  0.
   734  3.6650  0.  0.
   735  3.6700  0.  0.
   736  3.6750  0.  0.
   737  3.6800  0.  0.
   738  3.6850  0.  0.
   739  3.6900  0.  0.
   740  3.6950  0.  0.
   741  3.7000  0.  0.
   742  3.7050  0.  0.
   743  3.7100  0.  0.
   744  3.7150  0.  0.
   745  3.7200  0.  0.
   746  3.7250  0.  0.
   747  3.7300  0.  0.
   748  3.7350  0.  0.
   749  3.7400  0.  0.
   750  3.7450  0.  0.
   751  3.7500  0.  0.
   752  3.7550  0.  0.
   753  3.7600  0.  0.
   754  3.7650  0.  0.
   755  3.7700  0.  0.
   756  3.7750  0.  0.
   757  3.7800  0.  0.
   758  3.7850  0.  0.
   759  3.7900  0.  0.
   760  3.7950  0.  0.
   761  3.8000  0.  0.
   762  3.8050  0.  0.
   763  3.8100  0.  0.
   764  3.8150  0.  0.
   765  3.8200  0.  0.
   766  3.8250  0.  0.
   767  3.8300  0.  0.
   768  3.8350  0.  0.
   769  3.8400  0.  0.
   770  3.8450  0.  0.
   771  3.8500  0.  0.
   772  3.8550  0.  0.
   773  3.8600  0.  0.
   774  3.8650  0.  0.
   775  3.8700  0.  0.
   776  3.8750  0.  0.
   777  3.8800  0.  0.
   778  3.8850  0.  0.
   779  3.8900  0.  0.
   780  3.8950  0.  0.
   781  3.9000  0.  0.
   782  3.9050  0.  0.
   783  3.9100  0.  0.
   784  3.9150  0.  0.
   785  3.9200  0.  0.
   786  3.9250  0.  0.
   787  3.9300  0.  0.
   788  3.9350  0.  0.
   789  3.9400  0.  0.
   790  3.9450  0.  0.
   791  3.9500  0.  0.
   792  3.9550  0.  0.
   793  3.9600  0.  0.
   794  3.9650  0.  0.
   795  3.9700  0.  0.
   796  3.9750  0.  0.
   797  3.9800  0.  0.
   798  3.9850  0.  0.
   799  3.9900  0.  0.
   800  3.9950  0.  0.
   801  4.0000  0.  0.
   802  4.0050  0.  0.
   803  4.0100  0.  0.
   804  4.0150  0.  0.
   805  4.0200  0.  0.
   806  4.0250  0.  0.
   807  4.0300  0.  0.
   808  4.0350  0.  0.
   809  4.0400  0.  0.
   810  4.0450  0.  0.
   811  4.0500  0.  0.
   812  4.0550  0.  0.
   813  4.0600  0.  0.
   814  4.0650  0.  0.
   815  4.0700  0.  0.
   816  4.0750  0.  0.
   817  4.0800  0.  0.
   818  4.0850  0.  0.
   819  4.0900  0.  0.
   820  4.0950  0.  0.
   821  4.1000  0.  0.
   822  4.1050  0.  0.
   823  4.1100  0.  0.
   824  4.1150  0.  0.
   825  4.1200  0.  0.
   826  4.1250  0.  0.
   827  4.1300  0.  0.
   828  4.1350  0.  0.
   829  4.1400  0.  0.
   830  4.1450  0.  0.
   831  4.1500  0.  0.