Fe    ONCVPSP-3.2.3.1  r_core=   1.26437   1.20546   1.56719
26.0000     16.0000      170429    zatom,zion,pspd
8      11   2     4   600     0    pspcod,pspxc,lmax,lloc,mmax,r2well
5.99000000  3.00000000  0.00000000    rchrg fchrg qchrg
2     2     2     0     0    nproj
1     1           extension_switch
0                         1.0165788498768E+01  1.4646150645517E+00
1  0.0000000000000E+00  6.2816418733291E-13  2.2306656521920E-10
2  1.0000000000000E-02  9.5003991480818E-02 -2.8504563550008E-02
3  2.0000000000000E-02  1.8971990861746E-01 -5.6755390037992E-02
4  3.0000000000000E-02  2.8386067209299E-01 -8.4500162491699E-02
5  4.0000000000000E-02  3.7714118962101E-01 -1.1148939569032E-01
6  5.0000000000000E-02  4.6927934190068E-01 -1.3747783102662E-01
7  6.0000000000000E-02  5.5999695949758E-01 -1.6222580631087E-01
8  7.0000000000000E-02  6.4902078762378E-01 -1.8550059242653E-01
9  8.0000000000000E-02  7.3608343578961E-01 -2.0707768897053E-01
10  9.0000000000000E-02  8.2092430930022E-01 -2.2674207128697E-01
11  1.0000000000000E-01  9.0329051957280E-01 -2.4428938163092E-01
12  1.1000000000000E-01  9.8293777025646E-01 -2.5952705757517E-01
13  1.2000000000000E-01  1.0596312161470E+00 -2.7227539119699E-01
14  1.3000000000000E-01  1.1331462919047E+00 -2.8236851304892E-01
15  1.4000000000000E-01  1.2032695076070E+00 -2.8965529542642E-01
16  1.5000000000000E-01  1.2697992081981E+00 -2.9400016999088E-01
17  1.6000000000000E-01  1.3325462939400E+00 -2.9528385538566E-01
18  1.7000000000000E-01  1.3913348990207E+00 -2.9340399109169E-01
19  1.8000000000000E-01  1.4460030255406E+00 -2.8827567440286E-01
20  1.9000000000000E-01  1.4964031301770E+00 -2.7983189805503E-01
21  2.0000000000000E-01  1.5424026609174E+00 -2.6802388671172E-01
22  2.1000000000000E-01  1.5838845413656E+00 -2.5282133118864E-01
23  2.2000000000000E-01  1.6207476002461E+00 -2.3421251998275E-01
24  2.3000000000000E-01  1.6529069438782E+00 -2.1220436835436E-01
25  2.4000000000000E-01  1.6802942695504E+00 -1.8682234588653E-01
26  2.5000000000000E-01  1.7028581179073E+00 -1.5811030410997E-01
27  2.6000000000000E-01  1.7205640626539E+00 -1.2613020642704E-01
28  2.7000000000000E-01  1.7333948361022E+00 -9.0961763189828E-02
29  2.8000000000000E-01  1.7413503893147E+00 -5.2701975380200E-02
30  2.9000000000000E-01  1.7444478858470E+00 -1.1464590896827E-02
31  3.0000000000000E-01  1.7427216283611E+00  3.2620522027908E-02
32  3.1000000000000E-01  1.7362229176550E+00  7.9408079285195E-02
33  3.2000000000000E-01  1.7250198439514E+00  1.2873815780134E-01
34  3.3000000000000E-01  1.7091970105865E+00  1.8043703911285E-01
35  3.4000000000000E-01  1.6888551905600E+00  2.3431811349980E-01
36  3.5000000000000E-01  1.6641109167201E+00  2.9018283831763E-01
37  3.6000000000000E-01  1.6350960066909E+00  3.4782174397333E-01
38  3.7000000000000E-01  1.6019570239721E+00  4.0701548086249E-01
39  3.8000000000000E-01  1.5648546769740E+00  4.6753590051705E-01
40  3.9000000000000E-01  1.5239631580756E+00  5.2914716421112E-01
41  4.0000000000000E-01  1.4794694251183E+00  5.9160687233354E-01
42  4.1000000000000E-01  1.4315724280594E+00  6.5466720795826E-01
43  4.2000000000000E-01  1.3804822838196E+00  7.1807608822599E-01
44  4.3000000000000E-01  1.3264194026466E+00  7.8157831738861E-01
45  4.4000000000000E-01  1.2696135695994E+00  8.4491673565877E-01
46  4.5000000000000E-01  1.2103029850166E+00  9.0783335834546E-01
47  4.6000000000000E-01  1.1487332680747E+00  9.7007050013693E-01
48  4.7000000000000E-01  1.0851564277630E+00  1.0313718798095E+00
49  4.8000000000000E-01  1.0198298057994E+00  1.0914837010879E+00
50  4.9000000000000E-01  9.5301499618318E-01  1.1501557058525E+00
51  5.0000000000000E-01  8.8497674623016E-01  1.2071421963731E+00
52  5.1000000000000E-01  8.1598184405101E-01  1.2622030237442E+00
53  5.2000000000000E-01  7.4629799752949E-01  1.3151045401853E+00
54  5.3000000000000E-01  6.7619270991670E-01  1.3656205133600E+00
55  5.4000000000000E-01  6.0593215719261E-01  1.4135330013293E+00
56  5.5000000000000E-01  5.3578007234987E-01  1.4586331872071E+00
57  5.6000000000000E-01  4.6599664173086E-01  1.5007221729940E+00
58  5.7000000000000E-01  3.9683741849496E-01  1.5396117324434E+00
59  5.8000000000000E-01  3.2855225821242E-01  1.5751250231486E+00
60  5.9000000000000E-01  2.6138428147254E-01  1.6070972583151E+00
61  6.0000000000000E-01  1.9556886825990E-01  1.6353763389160E+00
62  6.1000000000000E-01  1.3133268869298E-01  1.6598234470912E+00
63  6.2000000000000E-01  6.8892774538220E-02  1.6803136017591E+00
64  6.3000000000000E-01  8.4556357074852E-03  1.6967361774505E+00
65  6.4000000000000E-01 -4.9783574275113E-02  1.7089953873519E+00
66  6.5000000000000E-01 -1.0564184009393E-01  1.7170107314555E+00
67  6.6000000000000E-01 -1.5894901026429E-01  1.7207174105630E+00
68  6.7000000000000E-01 -2.0954846334227E-01  1.7200667066770E+00
69  6.8000000000000E-01 -2.5729771179165E-01  1.7150263300443E+00
70  6.9000000000000E-01 -3.0206894087179E-01  1.7055807327920E+00
71  7.0000000000000E-01 -3.4374948021233E-01  1.6917313887288E+00
72  7.1000000000000E-01 -3.8224220604732E-01  1.6734970384768E+00
73  7.2000000000000E-01 -4.1746587239578E-01  1.6509138986561E+00
74  7.3000000000000E-01 -4.4935536978836E-01  1.6240358333818E+00
75  7.4000000000000E-01 -4.7786191045553E-01  1.5929344858556E+00
76  7.5000000000000E-01 -5.0295313920695E-01  1.5576993673505E+00
77  7.6000000000000E-01 -5.2461316954189E-01  1.5184379004139E+00
78  7.7000000000000E-01 -5.4284254483850E-01  1.4752754126505E+00
79  7.8000000000000E-01 -5.5765812477090E-01  1.4283550770158E+00
80  7.9000000000000E-01 -5.6909289739778E-01  1.3778377941559E+00
81  8.0000000000000E-01 -5.7719571765304E-01  1.3239020119771E+00
82  8.1000000000000E-01 -5.8203097324709E-01  1.2667434773402E+00
83  8.2000000000000E-01 -5.8367817925548E-01  1.2065749145445E+00
84  8.3000000000000E-01 -5.8223150292918E-01  1.1436256251164E+00
85  8.4000000000000E-01 -5.7779922050708E-01  1.0781410033425E+00
86  8.5000000000000E-01 -5.7050310804544E-01  1.0103819620009E+00
87  8.6000000000000E-01 -5.6047776850081E-01  9.4062426285325E-01
88  8.7000000000000E-01 -5.4786989751152E-01  8.6915774665282E-01
89  8.8000000000000E-01 -5.3283749051794E-01  7.9628545772683E-01
90  8.9000000000000E-01 -5.1554899404282E-01  7.2232265857721E-01
91  9.0000000000000E-01 -4.9618240411964E-01  6.4759573043427E-01
92  9.1000000000000E-01 -4.7492431500889E-01  5.7244095627516E-01
93  9.2000000000000E-01 -4.5196892147876E-01  4.9720318348543E-01
94  9.3000000000000E-01 -4.2751697804799E-01  4.2223436408871E-01
95  9.4000000000000E-01 -4.0177471869347E-01  3.4789197128992E-01
96  9.5000000000000E-01 -3.7495274061398E-01  2.7453729196143E-01
97  9.6000000000000E-01 -3.4726485571341E-01  2.0253359563667E-01
98  9.7000000000000E-01 -3.1892691352099E-01  1.3224418156484E-01
99  9.8000000000000E-01 -2.9015559930285E-01  6.4030306365765E-02
100  9.9000000000000E-01 -2.6116721113836E-01 -1.7510041339321E-03
101  1.0000000000000E+00 -2.3217641973385E-01 -6.4749254287689E-02
102  1.0100000000000E+00 -2.0339501472770E-01 -1.2462288364026E-01
103  1.0200000000000E+00 -1.7503064120173E-01 -1.8104177098576E-01
104  1.0300000000000E+00 -1.4728553005618E-01 -2.3368982996875E-01
105  1.0400000000000E+00 -1.2035522582140E-01 -2.8226768783417E-01
106  1.0500000000000E+00 -9.4427315392084E-02 -3.2649543820060E-01
107  1.0600000000000E+00 -6.9680161035024E-02 -3.6611545794261E-01
108  1.0700000000000E+00 -4.6281640835588E-02 -4.0089527792091E-01
109  1.0800000000000E+00 -2.4387898200602E-02 -4.3063050156800E-01
110  1.0900000000000E+00 -4.1420976764477E-03 -4.5514777762225E-01
111  1.1000000000000E+00  1.4326664593941E-02 -4.7430732442606E-01
112  1.1100000000000E+00  3.0905045469915E-02 -4.8800755923135E-01
113  1.1200000000000E+00  4.5495184824036E-02 -4.9618306366909E-01
114  1.1300000000000E+00  5.8011606822949E-02 -4.9879305284848E-01
115  1.1400000000000E+00  6.8377714786293E-02 -4.9580932638759E-01
116  1.1500000000000E+00  7.6525271253307E-02 -4.8721487751549E-01
117  1.1600000000000E+00  8.2394750863506E-02 -4.7300564496952E-01
118  1.1700000000000E+00  8.5935277038088E-02 -4.5319078300629E-01
119  1.1800000000000E+00  8.7104641627986E-02 -4.2779324232239E-01
120  1.1900000000000E+00  8.5869308982416E-02 -3.9685029049335E-01
121  1.2000000000000E+00  8.2204402483195E-02 -3.6041395849549E-01
122  1.2100000000000E+00  7.6093676234311E-02 -3.1855141505917E-01
123  1.2200000000000E+00  6.7528372378609E-02 -2.7134153869405E-01
124  1.2300000000000E+00  5.6449579732738E-02 -2.1868016796728E-01
125  1.2400000000000E+00  4.3546555692297E-02 -1.6299830703430E-01
126  1.2500000000000E+00  2.6924862831936E-02 -9.7893166832081E-02
127  1.2600000000000E+00  6.5132934588393E-03 -2.3158683435933E-02
128  1.2700000000000E+00 -2.3775254790797E-03  8.6519979203282E-03
129  1.2800000000000E+00  7.1478570764580E-05 -2.6111097925383E-04
130  1.2900000000000E+00  4.6538599961763E-04 -1.6938949519749E-03
131  1.3000000000000E+00 -6.8392974285171E-05  2.5395832242942E-04
132  1.3100000000000E+00 -6.2656360609847E-06  2.3234768571864E-05
133  1.3200000000000E+00 -3.9387701344880E-07  9.0974076166233E-07
134  1.3300000000000E+00  0.0000000000000E+00  0.0000000000000E+00
135  1.3400000000000E+00  0.0000000000000E+00  0.0000000000000E+00
136  1.3500000000000E+00  0.0000000000000E+00  0.0000000000000E+00
137  1.3600000000000E+00  0.0000000000000E+00  0.0000000000000E+00
138  1.3700000000000E+00  0.0000000000000E+00  0.0000000000000E+00
139  1.3800000000000E+00  0.0000000000000E+00  0.0000000000000E+00
140  1.3900000000000E+00  0.0000000000000E+00  0.0000000000000E+00
141  1.4000000000000E+00  0.0000000000000E+00  0.0000000000000E+00
142  1.4100000000000E+00  0.0000000000000E+00  0.0000000000000E+00
143  1.4200000000000E+00  0.0000000000000E+00  0.0000000000000E+00
144  1.4300000000000E+00  0.0000000000000E+00  0.0000000000000E+00
145  1.4400000000000E+00  0.0000000000000E+00  0.0000000000000E+00
146  1.4500000000000E+00  0.0000000000000E+00  0.0000000000000E+00
147  1.4600000000000E+00  0.0000000000000E+00  0.0000000000000E+00
148  1.4700000000000E+00  0.0000000000000E+00  0.0000000000000E+00
149  1.4800000000000E+00  0.0000000000000E+00  0.0000000000000E+00
150  1.4900000000000E+00  0.0000000000000E+00  0.0000000000000E+00
151  1.5000000000000E+00  0.0000000000000E+00  0.0000000000000E+00
152  1.5100000000000E+00  0.0000000000000E+00  0.0000000000000E+00
153  1.5200000000000E+00  0.0000000000000E+00  0.0000000000000E+00
154  1.5300000000000E+00  0.0000000000000E+00  0.0000000000000E+00
155  1.5400000000000E+00  0.0000000000000E+00  0.0000000000000E+00
156  1.5500000000000E+00  0.0000000000000E+00  0.0000000000000E+00
157  1.5600000000000E+00  0.0000000000000E+00  0.0000000000000E+00
158  1.5700000000000E+00  0.0000000000000E+00  0.0000000000000E+00
159  1.5800000000000E+00  0.0000000000000E+00  0.0000000000000E+00
160  1.5900000000000E+00  0.0000000000000E+00  0.0000000000000E+00
161  1.6000000000000E+00  0.0000000000000E+00  0.0000000000000E+00
162  1.6100000000000E+00  0.0000000000000E+00  0.0000000000000E+00
163  1.6200000000000E+00  0.0000000000000E+00  0.0000000000000E+00
164  1.6300000000000E+00  0.0000000000000E+00  0.0000000000000E+00
165  1.6400000000000E+00  0.0000000000000E+00  0.0000000000000E+00
166  1.6500000000000E+00  0.0000000000000E+00  0.0000000000000E+00
167  1.6600000000000E+00  0.0000000000000E+00  0.0000000000000E+00
168  1.6700000000000E+00  0.0000000000000E+00  0.0000000000000E+00
169  1.6800000000000E+00  0.0000000000000E+00  0.0000000000000E+00
170  1.6900000000000E+00  0.0000000000000E+00  0.0000000000000E+00
171  1.7000000000000E+00  0.0000000000000E+00  0.0000000000000E+00
172  1.7100000000000E+00  0.0000000000000E+00  0.0000000000000E+00
173  1.7200000000000E+00  0.0000000000000E+00  0.0000000000000E+00
174  1.7300000000000E+00  0.0000000000000E+00  0.0000000000000E+00
175  1.7400000000000E+00  0.0000000000000E+00  0.0000000000000E+00
176  1.7500000000000E+00  0.0000000000000E+00  0.0000000000000E+00
177  1.7600000000000E+00  0.0000000000000E+00  0.0000000000000E+00
178  1.7700000000000E+00  0.0000000000000E+00  0.0000000000000E+00
179  1.7800000000000E+00  0.0000000000000E+00  0.0000000000000E+00
180  1.7900000000000E+00  0.0000000000000E+00  0.0000000000000E+00
181  1.8000000000000E+00  0.0000000000000E+00  0.0000000000000E+00
182  1.8100000000000E+00  0.0000000000000E+00  0.0000000000000E+00
183  1.8200000000000E+00  0.0000000000000E+00  0.0000000000000E+00
184  1.8300000000000E+00  0.0000000000000E+00  0.0000000000000E+00
185  1.8400000000000E+00  0.0000000000000E+00  0.0000000000000E+00
186  1.8500000000000E+00  0.0000000000000E+00  0.0000000000000E+00
187  1.8600000000000E+00  0.0000000000000E+00  0.0000000000000E+00
188  1.8700000000000E+00  0.0000000000000E+00  0.0000000000000E+00
189  1.8800000000000E+00  0.0000000000000E+00  0.0000000000000E+00
190  1.8900000000000E+00  0.0000000000000E+00  0.0000000000000E+00
191  1.9000000000000E+00  0.0000000000000E+00  0.0000000000000E+00
192  1.9100000000000E+00  0.0000000000000E+00  0.0000000000000E+00
193  1.9200000000000E+00  0.0000000000000E+00  0.0000000000000E+00
194  1.9300000000000E+00  0.0000000000000E+00  0.0000000000000E+00
195  1.9400000000000E+00  0.0000000000000E+00  0.0000000000000E+00
196  1.9500000000000E+00  0.0000000000000E+00  0.0000000000000E+00
197  1.9600000000000E+00  0.0000000000000E+00  0.0000000000000E+00
198  1.9700000000000E+00  0.0000000000000E+00  0.0000000000000E+00
199  1.9800000000000E+00  0.0000000000000E+00  0.0000000000000E+00
200  1.9900000000000E+00  0.0000000000000E+00  0.0000000000000E+00
201  2.0000000000000E+00  0.0000000000000E+00  0.0000000000000E+00
202  2.0100000000000E+00  0.0000000000000E+00  0.0000000000000E+00
203  2.0200000000000E+00  0.0000000000000E+00  0.0000000000000E+00
204  2.0300000000000E+00  0.0000000000000E+00  0.0000000000000E+00
205  2.0400000000000E+00  0.0000000000000E+00  0.0000000000000E+00
206  2.0500000000000E+00  0.0000000000000E+00  0.0000000000000E+00
207  2.0600000000000E+00  0.0000000000000E+00  0.0000000000000E+00
208  2.0700000000000E+00  0.0000000000000E+00  0.0000000000000E+00
209  2.0800000000000E+00  0.0000000000000E+00  0.0000000000000E+00
210  2.0900000000000E+00  0.0000000000000E+00  0.0000000000000E+00
211  2.1000000000000E+00  0.0000000000000E+00  0.0000000000000E+00
212  2.1100000000000E+00  0.0000000000000E+00  0.0000000000000E+00
213  2.1200000000000E+00  0.0000000000000E+00  0.0000000000000E+00
214  2.1300000000000E+00  0.0000000000000E+00  0.0000000000000E+00
215  2.1400000000000E+00  0.0000000000000E+00  0.0000000000000E+00
216  2.1500000000000E+00  0.0000000000000E+00  0.0000000000000E+00
217  2.1600000000000E+00  0.0000000000000E+00  0.0000000000000E+00
218  2.1700000000000E+00  0.0000000000000E+00  0.0000000000000E+00
219  2.1800000000000E+00  0.0000000000000E+00  0.0000000000000E+00
220  2.1900000000000E+00  0.0000000000000E+00  0.0000000000000E+00
221  2.2000000000000E+00  0.0000000000000E+00  0.0000000000000E+00
222  2.2100000000000E+00  0.0000000000000E+00  0.0000000000000E+00
223  2.2200000000000E+00  0.0000000000000E+00  0.0000000000000E+00
224  2.2300000000000E+00  0.0000000000000E+00  0.0000000000000E+00
225  2.2400000000000E+00  0.0000000000000E+00  0.0000000000000E+00
226  2.2500000000000E+00  0.0000000000000E+00  0.0000000000000E+00
227  2.2600000000000E+00  0.0000000000000E+00  0.0000000000000E+00
228  2.2700000000000E+00  0.0000000000000E+00  0.0000000000000E+00
229  2.2800000000000E+00  0.0000000000000E+00  0.0000000000000E+00
230  2.2900000000000E+00  0.0000000000000E+00  0.0000000000000E+00
231  2.3000000000000E+00  0.0000000000000E+00  0.0000000000000E+00
232  2.3100000000000E+00  0.0000000000000E+00  0.0000000000000E+00
233  2.3200000000000E+00  0.0000000000000E+00  0.0000000000000E+00
234  2.3300000000000E+00  0.0000000000000E+00  0.0000000000000E+00
235  2.3400000000000E+00  0.0000000000000E+00  0.0000000000000E+00
236  2.3500000000000E+00  0.0000000000000E+00  0.0000000000000E+00
237  2.3600000000000E+00  0.0000000000000E+00  0.0000000000000E+00
238  2.3700000000000E+00  0.0000000000000E+00  0.0000000000000E+00
239  2.3800000000000E+00  0.0000000000000E+00  0.0000000000000E+00
240  2.3900000000000E+00  0.0000000000000E+00  0.0000000000000E+00
241  2.4000000000000E+00  0.0000000000000E+00  0.0000000000000E+00
242  2.4100000000000E+00  0.0000000000000E+00  0.0000000000000E+00
243  2.4200000000000E+00  0.0000000000000E+00  0.0000000000000E+00
244  2.4300000000000E+00  0.0000000000000E+00  0.0000000000000E+00
245  2.4400000000000E+00  0.0000000000000E+00  0.0000000000000E+00
246  2.4500000000000E+00  0.0000000000000E+00  0.0000000000000E+00
247  2.4600000000000E+00  0.0000000000000E+00  0.0000000000000E+00
248  2.4700000000000E+00  0.0000000000000E+00  0.0000000000000E+00
249  2.4800000000000E+00  0.0000000000000E+00  0.0000000000000E+00
250  2.4900000000000E+00  0.0000000000000E+00  0.0000000000000E+00
251  2.5000000000000E+00  0.0000000000000E+00  0.0000000000000E+00
252  2.5100000000000E+00  0.0000000000000E+00  0.0000000000000E+00
253  2.5200000000000E+00  0.0000000000000E+00  0.0000000000000E+00
254  2.5300000000000E+00  0.0000000000000E+00  0.0000000000000E+00
255  2.5400000000000E+00  0.0000000000000E+00  0.0000000000000E+00
256  2.5500000000000E+00  0.0000000000000E+00  0.0000000000000E+00
257  2.5600000000000E+00  0.0000000000000E+00  0.0000000000000E+00
258  2.5700000000000E+00  0.0000000000000E+00  0.0000000000000E+00
259  2.5800000000000E+00  0.0000000000000E+00  0.0000000000000E+00
260  2.5900000000000E+00  0.0000000000000E+00  0.0000000000000E+00
261  2.6000000000000E+00  0.0000000000000E+00  0.0000000000000E+00
262  2.6100000000000E+00  0.0000000000000E+00  0.0000000000000E+00
263  2.6200000000000E+00  0.0000000000000E+00  0.0000000000000E+00
264  2.6300000000000E+00  0.0000000000000E+00  0.0000000000000E+00
265  2.6400000000000E+00  0.0000000000000E+00  0.0000000000000E+00
266  2.6500000000000E+00  0.0000000000000E+00  0.0000000000000E+00
267  2.6600000000000E+00  0.0000000000000E+00  0.0000000000000E+00
268  2.6700000000000E+00  0.0000000000000E+00  0.0000000000000E+00
269  2.6800000000000E+00  0.0000000000000E+00  0.0000000000000E+00
270  2.6900000000000E+00  0.0000000000000E+00  0.0000000000000E+00
271  2.7000000000000E+00  0.0000000000000E+00  0.0000000000000E+00
272  2.7100000000000E+00  0.0000000000000E+00  0.0000000000000E+00
273  2.7200000000000E+00  0.0000000000000E+00  0.0000000000000E+00
274  2.7300000000000E+00  0.0000000000000E+00  0.0000000000000E+00
275  2.7400000000000E+00  0.0000000000000E+00  0.0000000000000E+00
276  2.7500000000000E+00  0.0000000000000E+00  0.0000000000000E+00
277  2.7600000000000E+00  0.0000000000000E+00  0.0000000000000E+00
278  2.7700000000000E+00  0.0000000000000E+00  0.0000000000000E+00
279  2.7800000000000E+00  0.0000000000000E+00  0.0000000000000E+00
280  2.7900000000000E+00  0.0000000000000E+00  0.0000000000000E+00
281  2.8000000000000E+00  0.0000000000000E+00  0.0000000000000E+00
282  2.8100000000000E+00  0.0000000000000E+00  0.0000000000000E+00
283  2.8200000000000E+00  0.0000000000000E+00  0.0000000000000E+00
284  2.8300000000000E+00  0.0000000000000E+00  0.0000000000000E+00
285  2.8400000000000E+00  0.0000000000000E+00  0.0000000000000E+00
286  2.8500000000000E+00  0.0000000000000E+00  0.0000000000000E+00
287  2.8600000000000E+00  0.0000000000000E+00  0.0000000000000E+00
288  2.8700000000000E+00  0.0000000000000E+00  0.0000000000000E+00
289  2.8800000000000E+00  0.0000000000000E+00  0.0000000000000E+00
290  2.8900000000000E+00  0.0000000000000E+00  0.0000000000000E+00
291  2.9000000000000E+00  0.0000000000000E+00  0.0000000000000E+00
292  2.9100000000000E+00  0.0000000000000E+00  0.0000000000000E+00
293  2.9200000000000E+00  0.0000000000000E+00  0.0000000000000E+00
294  2.9300000000000E+00  0.0000000000000E+00  0.0000000000000E+00
295  2.9400000000000E+00  0.0000000000000E+00  0.0000000000000E+00
296  2.9500000000000E+00  0.0000000000000E+00  0.0000000000000E+00
297  2.9600000000000E+00  0.0000000000000E+00  0.0000000000000E+00
298  2.9700000000000E+00  0.0000000000000E+00  0.0000000000000E+00
299  2.9800000000000E+00  0.0000000000000E+00  0.0000000000000E+00
300  2.9900000000000E+00  0.0000000000000E+00  0.0000000000000E+00
301  3.0000000000000E+00  0.0000000000000E+00  0.0000000000000E+00
302  3.0100000000000E+00  0.0000000000000E+00  0.0000000000000E+00
303  3.0200000000000E+00  0.0000000000000E+00  0.0000000000000E+00
304  3.0300000000000E+00  0.0000000000000E+00  0.0000000000000E+00
305  3.0400000000000E+00  0.0000000000000E+00  0.0000000000000E+00
306  3.0500000000000E+00  0.0000000000000E+00  0.0000000000000E+00
307  3.0600000000000E+00  0.0000000000000E+00  0.0000000000000E+00
308  3.0700000000000E+00  0.0000000000000E+00  0.0000000000000E+00
309  3.0800000000000E+00  0.0000000000000E+00  0.0000000000000E+00
310  3.0900000000000E+00  0.0000000000000E+00  0.0000000000000E+00
311  3.1000000000000E+00  0.0000000000000E+00  0.0000000000000E+00
312  3.1100000000000E+00  0.0000000000000E+00  0.0000000000000E+00
313  3.1200000000000E+00  0.0000000000000E+00  0.0000000000000E+00
314  3.1300000000000E+00  0.0000000000000E+00  0.0000000000000E+00
315  3.1400000000000E+00  0.0000000000000E+00  0.0000000000000E+00
316  3.1500000000000E+00  0.0000000000000E+00  0.0000000000000E+00
317  3.1600000000000E+00  0.0000000000000E+00  0.0000000000000E+00
318  3.1700000000000E+00  0.0000000000000E+00  0.0000000000000E+00
319  3.1800000000000E+00  0.0000000000000E+00  0.0000000000000E+00
320  3.1900000000000E+00  0.0000000000000E+00  0.0000000000000E+00
321  3.2000000000000E+00  0.0000000000000E+00  0.0000000000000E+00
322  3.2100000000000E+00  0.0000000000000E+00  0.0000000000000E+00
323  3.2200000000000E+00  0.0000000000000E+00  0.0000000000000E+00
324  3.2300000000000E+00  0.0000000000000E+00  0.0000000000000E+00
325  3.2400000000000E+00  0.0000000000000E+00  0.0000000000000E+00
326  3.2500000000000E+00  0.0000000000000E+00  0.0000000000000E+00
327  3.2600000000000E+00  0.0000000000000E+00  0.0000000000000E+00
328  3.2700000000000E+00  0.0000000000000E+00  0.0000000000000E+00
329  3.2800000000000E+00  0.0000000000000E+00  0.0000000000000E+00
330  3.2900000000000E+00  0.0000000000000E+00  0.0000000000000E+00
331  3.3000000000000E+00  0.0000000000000E+00  0.0000000000000E+00
332  3.3100000000000E+00  0.0000000000000E+00  0.0000000000000E+00
333  3.3200000000000E+00  0.0000000000000E+00  0.0000000000000E+00
334  3.3300000000000E+00  0.0000000000000E+00  0.0000000000000E+00
335  3.3400000000000E+00  0.0000000000000E+00  0.0000000000000E+00
336  3.3500000000000E+00  0.0000000000000E+00  0.0000000000000E+00
337  3.3600000000000E+00  0.0000000000000E+00  0.0000000000000E+00
338  3.3700000000000E+00  0.0000000000000E+00  0.0000000000000E+00
339  3.3800000000000E+00  0.0000000000000E+00  0.0000000000000E+00
340  3.3900000000000E+00  0.0000000000000E+00  0.0000000000000E+00
341  3.4000000000000E+00  0.0000000000000E+00  0.0000000000000E+00
342  3.4100000000000E+00  0.0000000000000E+00  0.0000000000000E+00
343  3.4200000000000E+00  0.0000000000000E+00  0.0000000000000E+00
344  3.4300000000000E+00  0.0000000000000E+00  0.0000000000000E+00
345  3.4400000000000E+00  0.0000000000000E+00  0.0000000000000E+00
346  3.4500000000000E+00  0.0000000000000E+00  0.0000000000000E+00
347  3.4600000000000E+00  0.0000000000000E+00  0.0000000000000E+00
348  3.4700000000000E+00  0.0000000000000E+00  0.0000000000000E+00
349  3.4800000000000E+00  0.0000000000000E+00  0.0000000000000E+00
350  3.4900000000000E+00  0.0000000000000E+00  0.0000000000000E+00
351  3.5000000000000E+00  0.0000000000000E+00  0.0000000000000E+00
352  3.5100000000000E+00  0.0000000000000E+00  0.0000000000000E+00
353  3.5200000000000E+00  0.0000000000000E+00  0.0000000000000E+00
354  3.5300000000000E+00  0.0000000000000E+00  0.0000000000000E+00
355  3.5400000000000E+00  0.0000000000000E+00  0.0000000000000E+00
356  3.5500000000000E+00  0.0000000000000E+00  0.0000000000000E+00
357  3.5600000000000E+00  0.0000000000000E+00  0.0000000000000E+00
358  3.5700000000000E+00  0.0000000000000E+00  0.0000000000000E+00
359  3.5800000000000E+00  0.0000000000000E+00  0.0000000000000E+00
360  3.5900000000000E+00  0.0000000000000E+00  0.0000000000000E+00
361  3.6000000000000E+00  0.0000000000000E+00  0.0000000000000E+00
362  3.6100000000000E+00  0.0000000000000E+00  0.0000000000000E+00
363  3.6200000000000E+00  0.0000000000000E+00  0.0000000000000E+00
364  3.6300000000000E+00  0.0000000000000E+00  0.0000000000000E+00
365  3.6400000000000E+00  0.0000000000000E+00  0.0000000000000E+00
366  3.6500000000000E+00  0.0000000000000E+00  0.0000000000000E+00
367  3.6600000000000E+00  0.0000000000000E+00  0.0000000000000E+00
368  3.6700000000000E+00  0.0000000000000E+00  0.0000000000000E+00
369  3.6800000000000E+00  0.0000000000000E+00  0.0000000000000E+00
370  3.6900000000000E+00  0.0000000000000E+00  0.0000000000000E+00
371  3.7000000000000E+00  0.0000000000000E+00  0.0000000000000E+00
372  3.7100000000000E+00  0.0000000000000E+00  0.0000000000000E+00
373  3.7200000000000E+00  0.0000000000000E+00  0.0000000000000E+00
374  3.7300000000000E+00  0.0000000000000E+00  0.0000000000000E+00
375  3.7400000000000E+00  0.0000000000000E+00  0.0000000000000E+00
376  3.7500000000000E+00  0.0000000000000E+00  0.0000000000000E+00
377  3.7600000000000E+00  0.0000000000000E+00  0.0000000000000E+00
378  3.7700000000000E+00  0.0000000000000E+00  0.0000000000000E+00
379  3.7800000000000E+00  0.0000000000000E+00  0.0000000000000E+00
380  3.7900000000000E+00  0.0000000000000E+00  0.0000000000000E+00
381  3.8000000000000E+00  0.0000000000000E+00  0.0000000000000E+00
382  3.8100000000000E+00  0.0000000000000E+00  0.0000000000000E+00
383  3.8200000000000E+00  0.0000000000000E+00  0.0000000000000E+00
384  3.8300000000000E+00  0.0000000000000E+00  0.0000000000000E+00
385  3.8400000000000E+00  0.0000000000000E+00  0.0000000000000E+00
386  3.8500000000000E+00  0.0000000000000E+00  0.0000000000000E+00
387  3.8600000000000E+00  0.0000000000000E+00  0.0000000000000E+00
388  3.8700000000000E+00  0.0000000000000E+00  0.0000000000000E+00
389  3.8800000000000E+00  0.0000000000000E+00  0.0000000000000E+00
390  3.8900000000000E+00  0.0000000000000E+00  0.0000000000000E+00
391  3.9000000000000E+00  0.0000000000000E+00  0.0000000000000E+00
392  3.9100000000000E+00  0.0000000000000E+00  0.0000000000000E+00
393  3.9200000000000E+00  0.0000000000000E+00  0.0000000000000E+00
394  3.9300000000000E+00  0.0000000000000E+00  0.0000000000000E+00
395  3.9400000000000E+00  0.0000000000000E+00  0.0000000000000E+00
396  3.9500000000000E+00  0.0000000000000E+00  0.0000000000000E+00
397  3.9600000000000E+00  0.0000000000000E+00  0.0000000000000E+00
398  3.9700000000000E+00  0.0000000000000E+00  0.0000000000000E+00
399  3.9800000000000E+00  0.0000000000000E+00  0.0000000000000E+00
400  3.9900000000000E+00  0.0000000000000E+00  0.0000000000000E+00
401  4.0000000000000E+00  0.0000000000000E+00  0.0000000000000E+00
402  4.0100000000000E+00  0.0000000000000E+00  0.0000000000000E+00
403  4.0200000000000E+00  0.0000000000000E+00  0.0000000000000E+00
404  4.0300000000000E+00  0.0000000000000E+00  0.0000000000000E+00
405  4.0400000000000E+00  0.0000000000000E+00  0.0000000000000E+00
406  4.0500000000000E+00  0.0000000000000E+00  0.0000000000000E+00
407  4.0600000000000E+00  0.0000000000000E+00  0.0000000000000E+00
408  4.0700000000000E+00  0.0000000000000E+00  0.0000000000000E+00
409  4.0800000000000E+00  0.0000000000000E+00  0.0000000000000E+00
410  4.0900000000000E+00  0.0000000000000E+00  0.0000000000000E+00
411  4.1000000000000E+00  0.0000000000000E+00  0.0000000000000E+00
412  4.1100000000000E+00  0.0000000000000E+00  0.0000000000000E+00
413  4.1200000000000E+00  0.0000000000000E+00  0.0000000000000E+00
414  4.1300000000000E+00  0.0000000000000E+00  0.0000000000000E+00
415  4.1400000000000E+00  0.0000000000000E+00  0.0000000000000E+00
416  4.1500000000000E+00  0.0000000000000E+00  0.0000000000000E+00
417  4.1600000000000E+00  0.0000000000000E+00  0.0000000000000E+00
418  4.1700000000000E+00  0.0000000000000E+00  0.0000000000000E+00
419  4.1800000000000E+00  0.0000000000000E+00  0.0000000000000E+00
420  4.1900000000000E+00  0.0000000000000E+00  0.0000000000000E+00
421  4.2000000000000E+00  0.0000000000000E+00  0.0000000000000E+00
422  4.2100000000000E+00  0.0000000000000E+00  0.0000000000000E+00
423  4.2200000000000E+00  0.0000000000000E+00  0.0000000000000E+00
424  4.2300000000000E+00  0.0000000000000E+00  0.0000000000000E+00
425  4.2400000000000E+00  0.0000000000000E+00  0.0000000000000E+00
426  4.2500000000000E+00  0.0000000000000E+00  0.0000000000000E+00
427  4.2600000000000E+00  0.0000000000000E+00  0.0000000000000E+00
428  4.2700000000000E+00  0.0000000000000E+00  0.0000000000000E+00
429  4.2800000000000E+00  0.0000000000000E+00  0.0000000000000E+00
430  4.2900000000000E+00  0.0000000000000E+00  0.0000000000000E+00
431  4.3000000000000E+00  0.0000000000000E+00  0.0000000000000E+00
432  4.3100000000000E+00  0.0000000000000E+00  0.0000000000000E+00
433  4.3200000000000E+00  0.0000000000000E+00  0.0000000000000E+00
434  4.3300000000000E+00  0.0000000000000E+00  0.0000000000000E+00
435  4.3400000000000E+00  0.0000000000000E+00  0.0000000000000E+00
436  4.3500000000000E+00  0.0000000000000E+00  0.0000000000000E+00
437  4.3600000000000E+00  0.0000000000000E+00  0.0000000000000E+00
438  4.3700000000000E+00  0.0000000000000E+00  0.0000000000000E+00
439  4.3800000000000E+00  0.0000000000000E+00  0.0000000000000E+00
440  4.3900000000000E+00  0.0000000000000E+00  0.0000000000000E+00
441  4.4000000000000E+00  0.0000000000000E+00  0.0000000000000E+00
442  4.4100000000000E+00  0.0000000000000E+00  0.0000000000000E+00
443  4.4200000000000E+00  0.0000000000000E+00  0.0000000000000E+00