H     ONCVPSP-4.0.1  r_core=   1.14388
      1.0000      1.0000      190817    zatom,zion,pspd
     8      11   0     4   600     0    pspcod,pspxc,lmax,lloc,mmax,r2well
  5.99000000  0.00000000  0.00000000    rchrg fchrg qchrg
     2     0     0     0     0    nproj
     1     1           extension_switch
   0                        -1.1257865439110E+00 -3.7414728495599E-01
     1  0.0000000000000E+00 -5.5911854590640E-08  3.7394794344392E-08
     2  1.0000000000000E-02  7.4078151894324E-02 -2.3416239852864E-02
     3  2.0000000000000E-02  1.4803859972420E-01 -4.6473052909964E-02
     4  3.0000000000000E-02  2.2176896256326E-01 -6.8816494619515E-02
     5  4.0000000000000E-02  2.9516714603040E-01 -9.0103352416538E-02
     6  5.0000000000000E-02  3.6814560154214E-01 -1.1000594077276E-01
     7  6.0000000000000E-02  4.4063456705873E-01 -1.2821623958860E-01
     8  7.0000000000000E-02  5.1258401874231E-01 -1.4444920333463E-01
     9  8.0000000000000E-02  5.8396411885751E-01 -1.5844510574466E-01
    10  9.0000000000000E-02  6.5476401130024E-01 -1.6997082884042E-01
    11  1.0000000000000E-01  7.2498888996828E-01 -1.7882005392620E-01
    12  1.1000000000000E-01  7.9465534411636E-01 -1.8481236401812E-01
    13  1.2000000000000E-01  8.6378506598855E-01 -1.8779131991883E-01
    14  1.3000000000000E-01  9.3239708639314E-01 -1.8762162368947E-01
    15  1.4000000000000E-01  1.0004987804664E+00 -1.8418553149417E-01
    16  1.5000000000000E-01  1.0680759557305E+00 -1.7737872065989E-01
    17  1.6000000000000E-01  1.1350823949389E+00 -1.6710585142406E-01
    18  1.7000000000000E-01  1.2014292746465E+00 -1.5327609057325E-01
    19  1.8000000000000E-01  1.2669749148372E+00 -1.3579888063207E-01
    20  1.9000000000000E-01  1.3315153336089E+00 -1.1458024340579E-01
    21  2.0000000000000E-01  1.3947760826969E+00 -8.9519899856338E-02
    22  2.1000000000000E-01  1.4564058238776E+00 -6.0509469255486E-02
    23  2.2000000000000E-01  1.5159720729944E+00 -2.7431979500689E-02
    24  2.3000000000000E-01  1.5729594880345E+00  9.8371219869658E-03
    25  2.4000000000000E-01  1.6267710114760E+00  5.1427320189788E-02
    26  2.5000000000000E-01  1.6767320967040E+00  9.7468672408551E-02
    27  2.6000000000000E-01  1.7220981558495E+00  1.4808573021846E-01
    28  2.7000000000000E-01  1.7620652645777E+00  2.0338981144908E-01
    29  2.8000000000000E-01  1.7957840511383E+00  2.6346976681256E-01
    30  2.9000000000000E-01  1.8223765856804E+00  3.2838146265861E-01
    31  3.0000000000000E-01  1.8409559748914E+00  3.9813627582545E-01
    32  3.1000000000000E-01  1.8506482599455E+00  4.7268896611202E-01
    33  3.2000000000000E-01  1.8506161160444E+00  5.5192535403558E-01
    34  3.3000000000000E-01  1.8400837627816E+00  6.3565028395680E-01
    35  3.4000000000000E-01  1.8183624192195E+00  7.2357639331848E-01
    36  3.5000000000000E-01  1.7848755785634E+00  8.1531423594602E-01
    37  3.6000000000000E-01  1.7391833368501E+00  9.1036431980814E-01
    38  3.7000000000000E-01  1.6810049897388E+00  1.0081116164983E+00
    39  3.8000000000000E-01  1.6102391123158E+00  1.1078230806348E+00
    40  3.9000000000000E-01  1.5269803591367E+00  1.2086486825828E+00
    41  4.0000000000000E-01  1.4315322651724E+00  1.3096264080937E+00
    42  4.1000000000000E-01  1.3244153918724E+00  1.4096916148847E+00
    43  4.2000000000000E-01  1.2063702444956E+00  1.5076910605701E+00
    44  4.3000000000000E-01  1.0783544848607E+00  1.6024018309008E+00
    45  4.4000000000000E-01  9.4153407484227E-01  1.6925553045235E+00
    46  4.5000000000000E-01  7.9726810693748E-01  1.7768661933181E+00
    47  4.6000000000000E-01  6.4708720530098E-01  1.8540665989014E+00
    48  4.7000000000000E-01  4.9266550982742E-01  1.9229449293017E+00
    49  4.8000000000000E-01  3.3578638302133E-01  1.9823894283538E+00
    50  4.9000000000000E-01  1.7830210028469E-01  2.0314359880018E+00
    51  5.0000000000000E-01  2.2087995689858E-02  2.0693192359668E+00
    52  5.1000000000000E-01 -1.3099976158936E-01  2.0954789220897E+00
    53  5.2000000000000E-01 -2.7914411780947E-01  2.1094565165912E+00
    54  5.3000000000000E-01 -4.2059251615442E-01  2.1108714823085E+00
    55  5.4000000000000E-01 -5.5368799517862E-01  2.0994416709233E+00
    56  5.5000000000000E-01 -6.7689934276997E-01  2.0750027213302E+00
    57  5.6000000000000E-01 -7.8884942200366E-01  2.0375251973641E+00
    58  5.7000000000000E-01 -8.8834091528376E-01  1.9871289049327E+00
    59  5.8000000000000E-01 -9.7437878790132E-01  1.9240938948591E+00
    60  5.9000000000000E-01 -1.0461888475052E+00  1.8488677383738E+00
    61  6.0000000000000E-01 -1.1032318711566E+00  1.7620687594527E+00
    62  6.1000000000000E-01 -1.1452128825733E+00  1.6644850139226E+00
    63  6.2000000000000E-01 -1.1720852869336E+00  1.5570689210056E+00
    64  6.3000000000000E-01 -1.1840497048112E+00  1.4409275724799E+00
    65  6.4000000000000E-01 -1.1815474869899E+00  1.3173088659841E+00
    66  6.5000000000000E-01 -1.1652490338182E+00  1.1875837280750E+00
    67  6.6000000000000E-01 -1.1360371823435E+00  1.0532248062035E+00
    68  6.7000000000000E-01 -1.0949860573306E+00  9.1578211273530E-01
    69  6.8000000000000E-01 -1.0433359047125E+00  7.7685619599023E-01
    70  6.9000000000000E-01 -9.8246453437294E-01  6.3806949006053E-01
    71  7.0000000000000E-01 -9.1385609014500E-01  5.0103655436458E-01
    72  7.1000000000000E-01 -8.3906793578847E-01  3.6733395348905E-01
    73  7.2000000000000E-01 -7.5969649409355E-01  2.3847054602634E-01
    74  7.3000000000000E-01 -6.7734290113809E-01  1.1585894810756E-01
    75  7.4000000000000E-01 -5.9357933875864E-01  7.8891373283000E-04
    76  7.5000000000000E-01 -5.0991688338399E-01 -1.0559667395977E-01
    77  7.6000000000000E-01 -4.2777566193213E-01 -2.0232257168779E-01
    78  7.7000000000000E-01 -3.4845803583472E-01 -2.8859816004020E-01
    79  7.8000000000000E-01 -2.7312544319380E-01 -3.6383019919777E-01
    80  7.9000000000000E-01 -2.0277942125974E-01 -4.2763102650593E-01
    81  8.0000000000000E-01 -1.3824721023709E-01 -4.7982198788608E-01
    82  8.1000000000000E-01 -8.0172205660821E-02 -5.2043202701698E-01
    83  8.2000000000000E-01 -2.9009387471991E-02 -5.4969148829081E-01
    84  8.3000000000000E-01  1.4974286591819E-02 -5.6802131871375E-01
    85  8.4000000000000E-01  5.1694677639526E-02 -5.7601798369686E-01
    86  8.5000000000000E-01  8.1240738682551E-02 -5.7443452569138E-01
    87  8.6000000000000E-01  1.0386067504633E-01 -5.6415830085835E-01
    88  8.7000000000000E-01  1.1994451445621E-01 -5.4618602033998E-01
    89  8.8000000000000E-01  1.3000370029461E-01 -5.2159679061633E-01
    90  8.9000000000000E-01  1.3464839815384E-01 -4.9152390335947E-01
    91  9.0000000000000E-01  1.3456325551261E-01 -4.5712615084828E-01
    92  9.1000000000000E-01  1.3048238582390E-01 -4.1955945378743E-01
    93  9.2000000000000E-01  1.2316435182299E-01 -3.7994956971770E-01
    94  9.3000000000000E-01  1.1336790604499E-01 -3.3936661448425E-01
    95  9.4000000000000E-01  1.0182920497966E-01 -2.9880206942726E-01
    96  9.5000000000000E-01  8.9241149480006E-02 -2.5914886665313E-01
    97  9.6000000000000E-01  7.6235424447349E-02 -2.2118505250635E-01
    98  9.7000000000000E-01  6.3367709261470E-02 -1.8556141502899E-01
    99  9.8000000000000E-01  5.1106421763152E-02 -1.5279334500352E-01
   100  9.9000000000000E-01  3.9825233246109E-02 -1.2325706669137E-01
   101  1.0000000000000E+00  2.9799468467195E-02 -9.7190248385341E-02
   102  1.0100000000000E+00  2.1206371642237E-02 -7.4696866284009E-02
   103  1.0200000000000E+00  1.4129096036540E-02 -5.5756073247956E-02
   104  1.0300000000000E+00  8.5641510635543E-03 -4.0234700968312E-02
   105  1.0400000000000E+00  4.4319343966891E-03 -2.7902922493791E-02
   106  1.0500000000000E+00  1.5898758541775E-03 -1.8452504707621E-02
   107  1.0600000000000E+00 -1.5235569751677E-04 -1.1517012256242E-02
   108  1.0700000000000E+00 -1.0161871426165E-03 -6.6932733567538E-03
   109  1.0800000000000E+00 -1.2367274629545E-03 -3.5633243524622E-03
   110  1.0900000000000E+00 -1.0507363665610E-03 -1.7110119479725E-03
   111  1.1000000000000E+00 -7.2012632670642E-04 -7.0463459893270E-04
   112  1.1100000000000E+00 -3.9004392715322E-04 -2.3377224378049E-04
   113  1.1200000000000E+00 -1.4477969716691E-04 -6.1887336817715E-05
   114  1.1300000000000E+00 -2.1581374321715E-05 -1.6415586744731E-05
   115  1.1400000000000E+00  1.4852183362907E-06 -2.2351479608639E-06
   116  1.1500000000000E+00 -1.3040714063654E-07  1.0328123484881E-07
   117  1.1600000000000E+00 -5.6365925456239E-09  1.5286255136448E-08
   118  1.17  0. -0.
   119  1.18  0.  0.
   120  1.19  0.  0.
   121  1.20  0.  0.
   122  1.21  0.  0.
   123  1.22  0.  0.
   124  1.23  0.  0.
   125  1.24  0.  0.
   126  1.25  0.  0.
   127  1.26  0.  0.
   128  1.27  0.  0.
   129  1.28  0.  0.
   130  1.29  0.  0.
   131  1.30  0.  0.
   132  1.31  0.  0.
   133  1.32  0.  0.
   134  1.33  0.  0.
   135  1.34  0.  0.
   136  1.35  0.  0.
   137  1.36  0.  0.
   138  1.37  0.  0.
   139  1.38  0.  0.
   140  1.39  0.  0.
   141  1.40  0.  0.
   142  1.41  0.  0.
   143  1.42  0.  0.
   144  1.43  0.  0.
   145  1.44  0.  0.
   146  1.45  0.  0.
   147  1.46  0.  0.
   148  1.47  0.  0.
   149  1.48  0.  0.
   150  1.49  0.  0.
   151  1.50  0.  0.
   152  1.51  0.  0.
   153  1.52  0.  0.
   154  1.53  0.  0.
   155  1.54  0.  0.
   156  1.55  0.  0.
   157  1.56  0.  0.
   158  1.57  0.  0.
   159  1.58  0.  0.
   160  1.59  0.  0.
   161  1.60  0.  0.
   162  1.61  0.  0.
   163  1.62  0.  0.
   164  1.63  0.  0.
   165  1.64  0.  0.
   166  1.65  0.  0.
   167  1.66  0.  0.
   168  1.67  0.  0.
   169  1.68  0.  0.
   170  1.69  0.  0.
   171  1.70  0.  0.
   172  1.71  0.  0.
   173  1.72  0.  0.
   174  1.73  0.  0.
   175  1.74  0.  0.
   176  1.75  0.  0.
   177  1.76  0.  0.
   178  1.77  0.  0.
   179  1.78  0.  0.
   180  1.79  0.  0.
   181  1.80  0.  0.
   182  1.81  0.  0.
   183  1.82  0.  0.
   184  1.83  0.  0.
   185  1.84  0.  0.
   186  1.85  0.  0.
   187  1.86  0.  0.
   188  1.87  0.  0.
   189  1.88  0.  0.
   190  1.89  0.  0.
   191  1.90  0.  0.
   192  1.91  0.  0.
   193  1.92  0.  0.
   194  1.93  0.  0.
   195  1.94  0.  0.
   196  1.95  0.  0.
   197  1.96  0.  0.
   198  1.97  0.  0.
   199  1.98  0.  0.
   200  1.99  0.  0.
   201  2.00  0.  0.
   202  2.01  0.  0.
   203  2.02  0.  0.
   204  2.03  0.  0.
   205  2.04  0.  0.
   206  2.05  0.  0.
   207  2.06  0.  0.
   208  2.07  0.  0.
   209  2.08  0.  0.
   210  2.09  0.  0.
   211  2.10  0.  0.
   212  2.11  0.  0.
   213  2.12  0.  0.
   214  2.13  0.  0.
   215  2.14  0.  0.
   216  2.15  0.  0.
   217  2.16  0.  0.
   218  2.17  0.  0.
   219  2.18  0.  0.
   220  2.19  0.  0.
   221  2.20  0.  0.
   222  2.21  0.  0.
   223  2.22  0.  0.
   224  2.23  0.  0.
   225  2.24  0.  0.
   226  2.25  0.  0.
   227  2.26  0.  0.
   228  2.27  0.  0.
   229  2.28  0.  0.
   230  2.29  0.  0.
   231  2.30  0.  0.
   232  2.31  0.  0.
   233  2.32  0.  0.
   234  2.33  0.  0.
   235  2.34  0.  0.
   236  2.35  0.  0.
   237  2.36  0.  0.
   238  2.37  0.  0.
   239  2.38  0.  0.
   240  2.39  0.  0.
   241  2.40  0.  0.
   242  2.41  0.  0.
   243  2.42  0.  0.
   244  2.43  0.  0.
   245  2.44  0.  0.
   246  2.45  0.  0.
   247  2.46  0.  0.
   248  2.47  0.  0.
   249  2.48  0.  0.
   250  2.49  0.  0.
   251  2.50  0.  0.
   252  2.51  0.  0.
   253  2.52  0.  0.
   254  2.53  0.  0.
   255  2.54  0.  0.
   256  2.55  0.  0.
   257  2.56  0.  0.
   258  2.57  0.  0.
   259  2.58  0.  0.
   260  2.59  0.  0.
   261  2.60  0.  0.
   262  2.61  0.  0.
   263  2.62  0.  0.
   264  2.63  0.  0.
   265  2.64  0.  0.
   266  2.65  0.  0.
   267  2.66  0.  0.
   268  2.67  0.  0.
   269  2.68  0.  0.
   270  2.69  0.  0.
   271  2.70  0.  0.
   272  2.71  0.  0.
   273  2.72  0.  0.
   274  2.73  0.  0.
   275  2.74  0.  0.
   276  2.75  0.  0.
   277  2.76  0.  0.
   278  2.77  0.  0.
   279  2.78  0.  0.
   280  2.79  0.  0.
   281  2.80  0.  0.
   282  2.81  0.  0.
   283  2.82  0.  0.
   284  2.83  0.  0.
   285  2.84  0.  0.
   286  2.85  0.  0.
   287  2.86  0.  0.
   288  2.87  0.  0.
   289  2.88  0.  0.
   290  2.89  0.  0.
   291  2.90  0.  0.
   292  2.91  0.  0.
   293  2.92  0.  0.
   294  2.93  0.  0.
   295  2.94  0.  0.
   296  2.95  0.  0.
   297  2.96  0.  0.
   298  2.97  0.  0.
   299  2.98  0.  0.
   300  2.99  0.  0.
   301  3.00  0.  0.
   302  3.01  0.  0.
   303  3.02  0.  0.
   304  3.03  0.  0.
   305  3.04  0.  0.
   306  3.05  0.  0.
   307  3.06  0.  0.
   308  3.07  0.  0.
   309  3.08  0.  0.
   310  3.09  0.  0.
   311  3.10  0.  0.
   312  3.11  0.  0.
   313  3.12  0.  0.
   314  3.13  0.  0.
   315  3.14  0.  0.
   316  3.15  0.  0.
   317  3.16  0.  0.
   318  3.17  0.  0.
   319  3.18  0.  0.
   320  3.19  0.  0.
   321  3.20  0.  0.
   322  3.21  0.  0.
   323  3.22  0.  0.
   324  3.23  0.  0.
   325  3.24  0.  0.
   326  3.25  0.  0.
   327  3.26  0.  0.
   328  3.27  0.  0.
   329  3.28  0.  0.
   330  3.29  0.  0.
   331  3.30  0.  0.
   332  3.31  0.  0.
   333  3.32  0.  0.
   334  3.33  0.  0.
   335  3.34  0.  0.
   336  3.35  0.  0.
   337  3.36  0.  0.
   338  3.37  0.  0.
   339  3.38  0.  0.
   340  3.39  0.  0.
   341  3.40  0.  0.
   342  3.41  0.  0.
   343  3.42  0.  0.
   344  3.43  0.  0.
   345  3.44  0.  0.
   346  3.45  0.  0.
   347  3.46  0.  0.
   348  3.47  0.  0.
   349  3.48  0.  0.
   350  3.49  0.  0.
   351  3.50  0.  0.
   352  3.51  0.  0.
   353  3.52  0.  0.
   354  3.53  0.  0.
   355  3.54  0.  0.
   356  3.55  0.  0.
   357  3.56  0.  0.
   358  3.57  0.  0.
   359  3.58  0.  0.
   360  3.59  0.  0.
   361  3.60  0.  0.
   362  3.61  0.  0.
   363  3.62  0.  0.
   364  3.63  0.  0.
   365  3.64  0.  0.
   366  3.65  0.  0.
   367  3.66  0.  0.
   368  3.67  0.  0.
   369  3.68  0.  0.
   370  3.69  0.  0.
   371  3.70  0.  0.
   372  3.71  0.  0.
   373  3.72  0.  0.
   374  3.73  0.  0.
   375  3.74  0.  0.
   376  3.75  0.  0.
   377  3.76  0.  0.
   378  3.77  0.  0.
   379  3.78  0.  0.
   380  3.79  0.  0.
   381  3.80  0.  0.
   382  3.81  0.  0.
   383  3.82  0.  0.
   384  3.83  0.  0.
   385  3.84  0.  0.
   386  3.85  0.  0.
   387  3.86  0.  0.
   388  3.87  0.  0.
   389  3.88  0.  0.
   390  3.89  0.  0.
   391  3.90  0.  0.
   392  3.91  0.  0.
   393  3.92  0.  0.
   394  3.93  0.  0.
   395  3.94  0.  0.
   396  3.95  0.  0.
   397  3.96  0.  0.
   398  3.97  0.  0.
   399  3.98  0.  0.
   400  3.99  0.  0.
   401  4.00  0.  0.
   402  4.01  0.  0.
   403  4.02  0.  0.
   404  4.03  0.  0.
   405  4.04  0.  0.
   406  4.05  0.  0.
   407  4.06  0.  0.
   408  4.07  0.  0.
   409  4.08  0.  0.
   410  4.09  0.  0.
   411  4.10  0.  0.
   412  4.11  0.  0.
   413  4.12  0.  0.
   414  4.13  0.  0.
   415  4.14  0.  0.
   416  4.15  0.  0.
   417  4.16  0.  0.
   418  4.17  0.  0.
   419  4.18  0.  0.
   420  4.19  0.  0.
   421  4.20  0.  0.
   422  4.21  0.  0.
   423  4.22  0.  0.
   424  4.23  0.  0.
   425  4.24  0.  0.
   426  4.25  0.  0.
   427  4.26  0.  0.
   428  4.27  0.  0.
   429  4.28  0.  0.
   430  4.29  0.  0.
   431  4.30  0.  0.
   432  4.31  0.  0.
   433  4.32  0.  0.
   434  4.33  0.  0.
   435  4.34  0.  0.
   436  4.35  0.  0.
   437  4.36  0.  0.
   438  4.37  0.  0.
   439  4.38  0.  0.
   440  4.39  0.  0.
   441  4.40  0.  0.
   442  4.41  0.  0.
   443  4.42  0.  0.
   444  4.43  0.  0.
   445  4.44  0.  0.
   446  4.45  0.  0.
   447  4.46  0.  0.
   448  4.47  0.  0.
   449  4.48  0.  0.
   450  4.49  0.  0.
   451  4.50  0.  0.
   452  4.51  0.  0.
   453  4.52  0.  0.
   454  4.53  0.  0.
   455  4.54  0.  0.
   456  4.55  0.  0.
   457  4.56  0.  0.
   458  4.57  0.  0.
   459  4.58  0.  0.
   460  4.59  0.  0.
   461  4.60  0.  0.
   462  4.61  0.  0.
   463  4.62  0.  0.
   464  4.63  0.  0.
   465  4.64  0.  0.
   466  4.65  0.  0.
   467  4.66  0.  0.
   468  4.67  0.  0.
   469  4.68  0.  0.
   470  4.69  0.  0.
   471  4.70  0.  0.
   472  4.71  0.  0.
   473  4.72  0.  0.
   474  4.73  0.  0.
   475  4.74  0.  0.
   476  4.75  0.  0.
   477  4.76  0.  0.
   478  4.77  0.  0.
   479  4.78  0.  0.
   480  4.79  0.  0.
   481  4.80  0.  0.
   482  4.81  0.  0.
   483  4.82  0.  0.
   484  4.83  0.  0.
   485  4.84  0.  0.
   486  4.85  0.  0.
   487  4.86  0.  0.
   488  4.87  0.  0.
   489  4.88  0.  0.
   490  4.89  0.  0.
   491  4.90  0.  0.
   492  4.91  0.  0.
   493  4.92  0.  0.
   494  4.93  0.  0.
   495  4.94  0.  0.
   496  4.95  0.  0.
   497  4.96  0.  0.
   498  4.97  0.  0.
   499  4.98  0.  0.
   500  4.99  0.  0.
   501  5.00  0.  0.
   502  5.01  0.  0.
   503  5.02  0.  0.
   504  5.03  0.  0.
   505  5.04  0.  0.
   506  5.05  0.  0.
   507  5.06  0.  0.
   508  5.07  0.  0.
   509  5.08  0.  0.
   510  5.09  0.  0.
   511  5.10  0.  0.
   512  5.11  0.  0.
   513  5.12  0.  0.
   514  5.13  0.  0.
   515  5.14  0.  0.
   516  5.15  0.  0.
   517  5.16  0.  0.
   518  5.17  0.  0.
   519  5.18  0.  0.
   520  5.19  0.  0.
   521  5.20  0.  0.
   522  5.21  0.  0.
   523  5.22  0.  0.
   524  5.23  0.  0.
   525  5.24  0.  0.
   526  5.25  0.  0.
   527  5.26  0.  0.
   528  5.27  0.  0.
   529  5.28  0.  0.
   530  5.29  0.  0.
   531  5.30  0.  0.
   532  5.31  0.  0.
   533  5.32  0.  0.
   534  5.33  0.  0.
   535  5.34  0.  0.
   536  5.35  0.  0.
   537  5.36  0.  0.
   538  5.37  0.  0.
   539  5.38  0.  0.
   540  5.39  0.  0.
   541  5.40  0.  0.
   542  5.41  0.  0.
   543  5.42  0.  0.
   544  5.43  0.  0.
   545  5.44  0.  0.
   546  5.45  0.  0.
   547  5.46  0.  0.
   548  5.47  0.  0.
   549  5.48  0.  0.
   550  5.49  0.  0.
   551  5.50  0.  0.
   552  5.51  0.  0.
   553  5.52  0.  0.
   554  5.53  0.  0.
   555  5.54  0.  0.
   556  5.55  0.  0.
   557  5.56  0.  0.
   558  5.57  0.  0.
   559  5.58  0.  0.
   560  5.59  0.  0.
   561  5.60  0.  0.
   562  5.61  0.  0.
   563  5.62  0.  0.
   564  5.63  0.  0.
   565  5.64  0.  0.
   566  5.65  0.  0.
   567  5.66  0.  0.
   568  5.67  0.  0.
   569  5.68  0.  0.
   570  5.69  0.  0.
   571  5.70  0.  0.
   572  5.71  0.  0.
   573  5.72  0.  0.
   574  5.73  0.  0.
   575  5.74  0.  0.
   576  5.75  0.  0.
   577  5.76  0.  0.
   578  5.77  0.  0.
   579  5.78  0.  0.
   580  5.79  0.  0.
   581  5.80  0.  0.
   582  5.81  0.  0.
   583  5.82  0.  0.
   584  5.83  0.  0.
   585  5.84  0.  0.
   586  5.85  0.  0.
   587  5.86  0.  0.
   588  5.87  0.  0.
   589  5.88  0.  0.
   590  5.89  0.  0.
   591  5.90  0.  0.
   592  5.91  0.  0.
   593  5.92  0.  0.
   594  5.93  0.  0.
   595  5.94  0.  0.
   596  5.95  0.  0.
   597  5.96  0.  0.
   598  5.97  0.  0.
   599  5.98  0.  0.
   600  5.99  0.  0.
   4
     1  0.0000000000000E+00 -4.5173196267672E+00
     2  1.0000000000000E-02 -4.5152158932830E+00
     3  2.0000000000000E-02 -4.5089149572982E+00
     4  3.0000000000000E-02 -4.4984480825256E+00
     5  4.0000000000000E-02 -4.4838665862314E+00
     6  5.0000000000000E-02 -4.4652409350885E+00
     7  6.0000000000000E-02 -4.4426594642401E+00
     8  7.0000000000000E-02 -4.4162268580639E+00
     9  8.0000000000000E-02 -4.3860624721929E+00
    10  9.0000000000000E-02 -4.3522985760953E+00
    11  1.0000000000000E-01 -4.3150785938004E+00
    12  1.1000000000000E-01 -4.2745554078797E+00
    13  1.2000000000000E-01 -4.2308897807154E+00
    14  1.3000000000000E-01 -4.1842489303969E+00
    15  1.4000000000000E-01 -4.1348052840423E+00
    16  1.5000000000000E-01 -4.0827354158437E+00
    17  1.6000000000000E-01 -4.0282191653805E+00
    18  1.7000000000000E-01 -3.9714389215431E+00
    19  1.8000000000000E-01 -3.9125790492560E+00
    20  1.9000000000000E-01 -3.8518254333634E+00
    21  2.0000000000000E-01 -3.7893651106772E+00
    22  2.1000000000000E-01 -3.7253859623023E+00
    23  2.2000000000000E-01 -3.6600764384402E+00
    24  2.3000000000000E-01 -3.5936252929174E+00
    25  2.4000000000000E-01 -3.5262213054091E+00
    26  2.5000000000000E-01 -3.4580529746664E+00
    27  2.6000000000000E-01 -3.3893081690779E+00
    28  2.7000000000000E-01 -3.3201737240513E+00
    29  2.8000000000000E-01 -3.2508349791574E+00
    30  2.9000000000000E-01 -3.1814752500813E+00
    31  3.0000000000000E-01 -3.1122752333188E+00
    32  3.1000000000000E-01 -3.0434123426921E+00
    33  3.2000000000000E-01 -2.9750599782729E+00
    34  3.3000000000000E-01 -2.9073867298405E+00
    35  3.4000000000000E-01 -2.8405555171510E+00
    36  3.5000000000000E-01 -2.7747226697547E+00
    37  3.6000000000000E-01 -2.7100369502450E+00
    38  3.7000000000000E-01 -2.6466385236000E+00
    39  3.8000000000000E-01 -2.5846578764708E+00
    40  3.9000000000000E-01 -2.5242146895787E+00
    41  4.0000000000000E-01 -2.4654166659137E+00
    42  4.1000000000000E-01 -2.4083583179710E+00
    43  4.2000000000000E-01 -2.3531197164290E+00
    44  4.3000000000000E-01 -2.2997652021561E+00
    45  4.4000000000000E-01 -2.2483420637609E+00
    46  4.5000000000000E-01 -2.1988791821387E+00
    47  4.6000000000000E-01 -2.1513856430827E+00
    48  4.7000000000000E-01 -2.1058493191591E+00
    49  4.8000000000000E-01 -2.0622354211880E+00
    50  4.9000000000000E-01 -2.0204850198977E+00
    51  5.0000000000000E-01 -1.9805136288157E+00
    52  5.1000000000000E-01 -1.9422168140919E+00
    53  5.2000000000000E-01 -1.9054908659695E+00
    54  5.3000000000000E-01 -1.8702393545828E+00
    55  5.4000000000000E-01 -1.8363725906720E+00
    56  5.5000000000000E-01 -1.8038070582489E+00
    57  5.6000000000000E-01 -1.7724649111408E+00
    58  5.7000000000000E-01 -1.7422735252721E+00
    59  5.8000000000000E-01 -1.7131650997641E+00
    60  5.9000000000000E-01 -1.6850763009091E+00
    61  6.0000000000000E-01 -1.6579479438997E+00
    62  6.1000000000000E-01 -1.6317247078517E+00
    63  6.2000000000000E-01 -1.6063548802520E+00
    64  6.3000000000000E-01 -1.5817901274634E+00
    65  6.4000000000000E-01 -1.5579852882637E+00
    66  6.5000000000000E-01 -1.5348981877643E+00
    67  6.6000000000000E-01 -1.5124894692286E+00
    68  6.7000000000000E-01 -1.4907224415556E+00
    69  6.8000000000000E-01 -1.4695629402821E+00
    70  6.9000000000000E-01 -1.4489792000758E+00
    71  7.0000000000000E-01 -1.4289417367815E+00
    72  7.1000000000000E-01 -1.4094232371408E+00
    73  7.2000000000000E-01 -1.3903984544037E+00
    74  7.3000000000000E-01 -1.3718441081410E+00
    75  7.4000000000000E-01 -1.3537387866695E+00
    76  7.5000000000000E-01 -1.3360628506965E+00
    77  7.6000000000000E-01 -1.3187983369217E+00
    78  7.7000000000000E-01 -1.3019288605887E+00
    79  7.8000000000000E-01 -1.2854395162015E+00
    80  7.9000000000000E-01 -1.2693167758885E+00
    81  8.0000000000000E-01 -1.2535483851818E+00
    82  8.1000000000000E-01 -1.2381232562659E+00
    83  8.2000000000000E-01 -1.2230313589973E+00
    84  8.3000000000000E-01 -1.2082636103190E+00
    85  8.4000000000000E-01 -1.1938117628523E+00
    86  8.5000000000000E-01 -1.1796682937164E+00
    87  8.6000000000000E-01 -1.1658262947381E+00
    88  8.7000000000000E-01 -1.1522793653620E+00
    89  8.8000000000000E-01 -1.1390215096078E+00
    90  8.9000000000000E-01 -1.1260470384318E+00
    91  9.0000000000000E-01 -1.1133504788295E+00
    92  9.1000000000000E-01 -1.1009264909166E+00
    93  9.2000000000000E-01 -1.0887697940502E+00
    94  9.3000000000000E-01 -1.0768751029611E+00
    95  9.4000000000000E-01 -1.0652370745542E+00
    96  9.5000000000000E-01 -1.0538502658798E+00
    97  9.6000000000000E-01 -1.0427091034866E+00
    98  9.7000000000000E-01 -1.0318078641014E+00
    99  9.8000000000000E-01 -1.0211406663511E+00
   100  9.9000000000000E-01 -1.0107014729474E+00
   101  1.0000000000000E+00 -1.0004841025725E+00
   102  1.0100000000000E+00 -9.9048225045647E-01
   103  1.0200000000000E+00 -9.8068951649101E-01
   104  1.0300000000000E+00 -9.7109943957020E-01
   105  1.0400000000000E+00 -9.6170553675929E-01
   106  1.0500000000000E+00 -9.5250134583579E-01
   107  1.0600000000000E+00 -9.4348046970741E-01
   108  1.0700000000000E+00 -9.3463662125268E-01
   109  1.0800000000000E+00 -9.2596366726296E-01
   110  1.0900000000000E+00 -9.1745566503555E-01
   111  1.1000000000000E+00 -9.0910688017364E-01
   112  1.1100000000000E+00 -9.0091188170699E-01
   113  1.1200000000000E+00 -8.9286555316359E-01
   114  1.1300000000000E+00 -8.8496308193032E-01
   115  1.1400000000000E+00 -8.7719997945820E-01
   116  1.1500000000000E+00 -8.6957209873282E-01
   117  1.1600000000000E+00 -8.6207573015546E-01
   118  1.1700000000000E+00 -8.5470751139222E-01
   119  1.1800000000000E+00 -8.4746417789695E-01
   120  1.1900000000000E+00 -8.4034258192368E-01
   121  1.2000000000000E+00 -8.3333967992799E-01
   122  1.2100000000000E+00 -8.2645252909797E-01
   123  1.2200000000000E+00 -8.1967828308026E-01
   124  1.2300000000000E+00 -8.1301418809302E-01
   125  1.2400000000000E+00 -8.0645757918250E-01
   126  1.2500000000000E+00 -8.0000587667549E-01
   127  1.2600000000000E+00 -7.9365658279293E-01
   128  1.2700000000000E+00 -7.8740727842532E-01
   129  1.2800000000000E+00 -7.8125562006016E-01
   130  1.2900000000000E+00 -7.7519933685339E-01
   131  1.3000000000000E+00 -7.6923622783192E-01
   132  1.3100000000000E+00 -7.6336415922784E-01
   133  1.3200000000000E+00 -7.5758106193366E-01
   134  1.3300000000000E+00 -7.5188492907024E-01
   135  1.3400000000000E+00 -7.4627381366510E-01
   136  1.3500000000000E+00 -7.4074582643380E-01
   137  1.3600000000000E+00 -7.3529913366016E-01
   138  1.3700000000000E+00 -7.2993195516513E-01
   139  1.3800000000000E+00 -7.2464256237100E-01
   140  1.3900000000000E+00 -7.1942927644227E-01
   141  1.4000000000000E+00 -7.1429046650971E-01
   142  1.4100000000000E+00 -7.0922454797165E-01
   143  1.4200000000000E+00 -7.0422998086078E-01
   144  1.4300000000000E+00 -6.9930526828717E-01
   145  1.4400000000000E+00 -6.9444895494136E-01
   146  1.4500000000000E+00 -6.8965962565909E-01
   147  1.4600000000000E+00 -6.8493590404892E-01
   148  1.4700000000000E+00 -6.8027645117134E-01
   149  1.4800000000000E+00 -6.7567996427503E-01
   150  1.4900000000000E+00 -6.7114517558085E-01
   151  1.5000000000000E+00 -6.6667085111870E-01
   152  1.5100000000000E+00 -6.6225578960466E-01
   153  1.5200000000000E+00 -6.5789882136861E-01
   154  1.5300000000000E+00 -6.5359880731966E-01
   155  1.5400000000000E+00 -6.4935463795337E-01
   156  1.5500000000000E+00 -6.4516523239830E-01
   157  1.5600000000000E+00 -6.4102953749726E-01
   158  1.5700000000000E+00 -6.3694652692455E-01
   159  1.5800000000000E+00 -6.3291520033893E-01
   160  1.5900000000000E+00 -6.2893458256271E-01
   161  1.6000000000000E+00 -6.2500372279954E-01
   162  1.6100000000000E+00 -6.2112169387442E-01
   163  1.6200000000000E+00 -6.1728759150583E-01
   164  1.6300000000000E+00 -6.1350053360269E-01
   165  1.6400000000000E+00 -6.0975965958923E-01
   166  1.6500000000000E+00 -6.0606412975099E-01
   167  1.6600000000000E+00 -6.0241312460859E-01
   168  1.6700000000000E+00 -5.9880584431017E-01
   169  1.6800000000000E+00 -5.9524150804851E-01
   170  1.6900000000000E+00 -5.9171935349633E-01
   171  1.7000000000000E+00 -5.8823863626431E-01
   172  1.7100000000000E+00 -5.8479862937509E-01
   173  1.7200000000000E+00 -5.8139862275797E-01
   174  1.7300000000000E+00 -5.7803792276012E-01
   175  1.7400000000000E+00 -5.7471585167479E-01
   176  1.7500000000000E+00 -5.7143174728546E-01
   177  1.7600000000000E+00 -5.6818496242636E-01
   178  1.7700000000000E+00 -5.6497486455662E-01
   179  1.7800000000000E+00 -5.6180083534994E-01
   180  1.7900000000000E+00 -5.5866227029734E-01
   181  1.8000000000000E+00 -5.5555857832365E-01
   182  1.8100000000000E+00 -5.5248918141570E-01
   183  1.8200000000000E+00 -5.4945351426431E-01
   184  1.8300000000000E+00 -5.4645102391683E-01
   185  1.8400000000000E+00 -5.4348116944108E-01
   186  1.8500000000000E+00 -5.4054342160101E-01
   187  1.8600000000000E+00 -5.3763726254203E-01
   188  1.8700000000000E+00 -5.3476218548657E-01
   189  1.8800000000000E+00 -5.3191769443979E-01
   190  1.8900000000000E+00 -5.2910330390392E-01
   191  1.9000000000000E+00 -5.2631853860250E-01
   192  1.9100000000000E+00 -5.2356293321259E-01
   193  1.9200000000000E+00 -5.2083603210530E-01
   194  1.9300000000000E+00 -5.1813738909510E-01
   195  1.9400000000000E+00 -5.1546656719626E-01
   196  1.9500000000000E+00 -5.1282313838682E-01
   197  1.9600000000000E+00 -5.1020668338019E-01
   198  1.9700000000000E+00 -5.0761679140313E-01
   199  1.9800000000000E+00 -5.0505305998113E-01
   200  1.9900000000000E+00 -5.0251509472959E-01
   201  2.0000000000000E+00 -5.0000250915177E-01
   202  2.0100000000000E+00 -4.9751492444251E-01
   203  2.0200000000000E+00 -4.9505196929777E-01
   204  2.0300000000000E+00 -4.9261327973004E-01
   205  2.0400000000000E+00 -4.9019849888888E-01
   206  2.0500000000000E+00 -4.8780727688719E-01
   207  2.0600000000000E+00 -4.8543927063052E-01
   208  2.0700000000000E+00 -4.8309414365548E-01
   209  2.0800000000000E+00 -4.8077156597096E-01
   210  2.0900000000000E+00 -4.7847121389964E-01
   211  2.1000000000000E+00 -4.7619276992941E-01
   212  2.1100000000000E+00 -4.7393592256780E-01
   213  2.1200000000000E+00 -4.7170036619987E-01
   214  2.1300000000000E+00 -4.6948580094997E-01
   215  2.1400000000000E+00 -4.6729193254773E-01
   216  2.1500000000000E+00 -4.6511847219776E-01
   217  2.1600000000000E+00 -4.6296513645278E-01
   218  2.1700000000000E+00 -4.6083164709052E-01
   219  2.1800000000000E+00 -4.5871773099389E-01
   220  2.1900000000000E+00 -4.5662312003424E-01
   221  2.2000000000000E+00 -4.5454755095818E-01
   222  2.2100000000000E+00 -4.5249076527725E-01
   223  2.2200000000000E+00 -4.5045250916053E-01
   224  2.2300000000000E+00 -4.4843253333024E-01
   225  2.2400000000000E+00 -4.4643059296011E-01
   226  2.2500000000000E+00 -4.4444644757650E-01
   227  2.2600000000000E+00 -4.4247986096207E-01
   228  2.2700000000000E+00 -4.4053060106194E-01
   229  2.2800000000000E+00 -4.3859843989256E-01
   230  2.2900000000000E+00 -4.3668315345277E-01