Mg    ONCVPSP  r_core=  1.16  1.56
12.0000     10.0000      150902    zatom,zion,pspd
8      11   1     4   400     0    pspcod,pspxc,lmax,lloc,mmax,r2well
3.99000000  0.00000000  0.00000000    rchrg fchrg qchrg
2     2     0     0     0    nproj
1                 extension_switch
0                         2.5680490201448E+00 -8.0594974355605E-01
1  0.0000000000000E+00  8.8953965748928E-08  1.9105760307170E-09
2  1.0000000000000E-02 -1.1804933266402E-01  2.8332460306375E-02
3  2.0000000000000E-02 -2.3410043274413E-01  5.6737021678083E-02
4  3.0000000000000E-02 -3.4620066709901E-01  8.5284379032103E-02
5  4.0000000000000E-02 -4.5248755512008E-01  1.1404244022984E-01
6  5.0000000000000E-02 -5.5123125263996E-01  1.4307499514861E-01
7  6.0000000000000E-02 -6.4087399035599E-01  1.7244045847258E-01
8  7.0000000000000E-02 -7.2006555896387E-01  2.0219070847526E-01
9  8.0000000000000E-02 -7.8769402215032E-01  2.3237004215472E-01
10  9.0000000000000E-02 -8.4291094603247E-01  2.6301426477040E-01
11  1.0000000000000E-01 -8.8515055717439E-01  2.9414992916487E-01
12  1.1000000000000E-01 -9.1414237821796E-01  3.2579373728917E-01
13  1.2000000000000E-01 -9.2991703739848E-01  3.5795211315087E-01
14  1.3000000000000E-01 -9.3280510250487E-01  3.9062095303345E-01
15  1.4000000000000E-01 -9.2342894776031E-01  4.2378555536621E-01
16  1.5000000000000E-01 -9.0268782012697E-01  4.5742072912608E-01
17  1.6000000000000E-01 -8.7173642615517E-01  4.9149107620022E-01
18  1.7000000000000E-01 -8.3195750825204E-01  5.2595143980123E-01
19  1.8000000000000E-01 -7.8492901682896E-01  5.6074750787481E-01
20  1.9000000000000E-01 -7.3238660911701E-01  5.9581655753690E-01
21  2.0000000000000E-01 -6.7618231371250E-01  6.3108832398351E-01
22  2.1000000000000E-01 -6.1824028968387E-01  6.6648597508347E-01
23  2.2000000000000E-01 -5.6051067829003E-01  7.0192717103794E-01
24  2.3000000000000E-01 -5.0492259243449E-01  7.3732518710574E-01
25  2.4000000000000E-01 -4.5333731280196E-01  7.7259007647819E-01
26  2.5000000000000E-01 -4.0750275959776E-01  8.0762984995647E-01
27  2.6000000000000E-01 -3.6901028486760E-01  8.4235164914636E-01
28  2.7000000000000E-01 -3.3925478297490E-01  8.7666289043312E-01
29  2.8000000000000E-01 -3.1939904693722E-01  9.1047235802118E-01
30  2.9000000000000E-01 -3.1034320745331E-01  9.4369122579230E-01
31  3.0000000000000E-01 -3.1269998153952E-01  9.7623398961866E-01
32  3.1000000000000E-01 -3.2677633111589E-01  1.0080192940218E+00
33  3.2000000000000E-01 -3.5256199139509E-01  1.0389706396414E+00
34  3.3000000000000E-01 -3.8972517760123E-01  1.0690169608147E+00
35  3.4000000000000E-01 -4.3761561970123E-01  1.0980930656039E+00
36  3.5000000000000E-01 -4.9527491197497E-01  1.1261399337759E+00
37  3.6000000000000E-01 -5.6145400096335E-01  1.1531048714728E+00
38  3.7000000000000E-01 -6.3463747526632E-01  1.1789415245329E+00
39  3.8000000000000E-01 -7.1307416733936E-01  1.2036097555684E+00
40  3.9000000000000E-01 -7.9481343432337E-01  1.2270753929072E+00
41  4.0000000000000E-01 -8.7774635521453E-01  1.2493098622894E+00
42  4.1000000000000E-01 -9.5965096828554E-01  1.2702897147296E+00
43  4.2000000000000E-01 -1.0382405781742E+00  1.2899960661451E+00
44  4.3000000000000E-01 -1.1112140886242E+00  1.3084139661667E+00
45  4.4000000000000E-01 -1.1763072662019E+00  1.3255317149610E+00
46  4.5000000000000E-01 -1.2313438136348E+00  1.3413401478582E+00
47  4.6000000000000E-01 -1.2742851293909E+00  1.3558319080920E+00
48  4.7000000000000E-01 -1.3032776528964E+00  1.3690007279993E+00
49  4.8000000000000E-01 -1.3166967419420E+00  1.3808407386042E+00
50  4.9000000000000E-01 -1.3131860994134E+00  1.3913458266307E+00
51  5.0000000000000E-01 -1.2916918590359E+00  1.4005090566778E+00
52  5.1000000000000E-01 -1.2514905522992E+00  1.4083221745772E+00
53  5.2000000000000E-01 -1.1922103088528E+00  1.4147752058775E+00
54  5.3000000000000E-01 -1.1138447875126E+00  1.4198561610117E+00
55  5.4000000000000E-01 -1.0167594913338E+00  1.4235508560584E+00
56  5.5000000000000E-01 -9.0169028493361E-01  1.4258428551630E+00
57  5.6000000000000E-01 -7.6973410134559E-01  1.4267135377081E+00
58  5.7000000000000E-01 -6.2233199556117E-01  1.4261422902862E+00
59  5.8000000000000E-01 -4.6124486924330E-01  1.4241068204847E+00
60  5.9000000000000E-01 -2.8852235111923E-01  1.4205835865410E+00
61  6.0000000000000E-01 -1.0646546823022E-01  1.4155483340956E+00
62  6.1000000000000E-01  8.2416120519159E-02  1.4089767286638E+00
63  6.2000000000000E-01  2.7545143674077E-01  1.4008450700891E+00
64  6.3000000000000E-01  4.6985904842600E-01  1.3911310732104E+00
65  6.4000000000000E-01  6.6280041780579E-01  1.3798146973055E+00
66  6.5000000000000E-01  8.5143460373833E-01  1.3668790055991E+00
67  6.6000000000000E-01  1.0329731602734E+00  1.3523110352886E+00
68  6.7000000000000E-01  1.2047340672066E+00  1.3361026581425E+00
69  6.8000000000000E-01  1.3641935484222E+00  1.3182514117938E+00
70  6.9000000000000E-01  1.5090346790401E+00  1.2987612823685E+00
71  7.0000000000000E-01  1.6371917513876E+00  1.2776434200452E+00
72  7.1000000000000E-01  1.7468894622079E+00  1.2549167705266E+00
73  7.2000000000000E-01  1.8366760961439E+00  1.2306086071682E+00
74  7.3000000000000E-01  1.9054500114580E+00  1.2047549506261E+00
75  7.4000000000000E-01  1.9524788806014E+00  1.1774008652993E+00
76  7.5000000000000E-01  1.9774112958887E+00  1.1486006244904E+00
77  7.6000000000000E-01  1.9802805184017E+00  1.1184177390595E+00
78  7.7000000000000E-01  1.9615003194632E+00  1.0869248472908E+00
79  7.8000000000000E-01  1.9218530369685E+00  1.0542034666999E+00
80  7.9000000000000E-01  1.8624701388060E+00  1.0203436114940E+00
81  8.0000000000000E-01  1.7848057488619E+00  9.8544328229190E-01
82  8.1000000000000E-01  1.6906037440513E+00  9.4960783745640E-01
83  8.2000000000000E-01  1.5818591700146E+00  9.1294925791486E-01
84  8.3000000000000E-01  1.4607748454335E+00  8.7558531959588E-01
85  8.4000000000000E-01  1.3297141276130E+00  8.3763868953567E-01
86  8.5000000000000E-01  1.1911508927362E+00  7.9923596326380E-01
87  8.6000000000000E-01  1.0476178412212E+00  7.6050666222915E-01
88  8.7000000000000E-01  9.0165427060529E-01  7.2158221074828E-01
89  8.8000000000000E-01  7.5575446466176E-01  6.8259491223302E-01
90  8.9000000000000E-01  6.1231782786773E-01  6.4367694427664E-01
91  9.0000000000000E-01  4.7360184936989E-01  6.0495939155433E-01
92  9.1000000000000E-01  3.4167891125859E-01  5.6657133443717E-01
93  9.2000000000000E-01  2.1839786386086E-01  5.2863900975676E-01
94  9.3000000000000E-01  1.0535117800410E-01  4.9128505832311E-01
95  9.4000000000000E-01  3.8483533668804E-03  4.5462787163525E-01
96  9.5000000000000E-01 -8.5103883886258E-02  4.1878104778292E-01
97  9.6000000000000E-01 -1.6081421865483E-01  3.8385296387546E-01
98  9.7000000000000E-01 -2.2291200977924E-01  3.4994646951623E-01
99  9.8000000000000E-01 -2.7134513898454E-01  3.1715870291907E-01
100  9.9000000000000E-01 -3.0637057748370E-01  2.8558102832102E-01
101  1.0000000000000E+00 -3.2853796588206E-01  2.5529909050489E-01
102  1.0100000000000E+00 -3.3866666854070E-01  2.2639297936326E-01
103  1.0200000000000E+00 -3.3781690780269E-01  1.9893749490838E-01
104  1.0300000000000E+00 -3.2725572007679E-01  1.7300250072566E-01
105  1.0400000000000E+00 -3.0841859260287E-01  1.4865335179277E-01
106  1.0500000000000E+00 -2.8286773787233E-01  1.2595138082151E-01
107  1.0600000000000E+00 -2.5224803338682E-01  1.0495442599321E-01
108  1.0700000000000E+00 -2.1824171435981E-01  8.5717382307038E-02
109  1.0800000000000E+00 -1.8252291265041E-01  6.8292754912465E-02
110  1.0900000000000E+00 -1.4671320276238E-01  5.2731207903790E-02
111  1.1000000000000E+00 -1.1233895189944E-01  3.9082025709142E-02
112  1.1100000000000E+00 -8.0792725555641E-02  2.7393757343575E-02
113  1.1200000000000E+00 -5.3295313199057E-02  1.7714003240737E-02
114  1.1300000000000E+00 -3.0866309318241E-02  1.0090705723366E-02
115  1.1400000000000E+00 -1.4159926265060E-02  4.5299876891012E-03
116  1.1500000000000E+00 -4.1515532174203E-03  1.2100597677802E-03
117  1.1600000000000E+00 -3.8076942511913E-04 -3.4762958806832E-05
118  1.1700000000000E+00  1.2123972197665E-04 -8.9185044151299E-05
119  1.1800000000000E+00 -6.4756457063324E-05  3.8159835963459E-05
120  1.1900000000000E+00  3.6400992778038E-06 -2.6250687779826E-06
121  1.2000000000000E+00  6.0597735850589E-06 -4.0249233433243E-06
122  1.2100000000000E+00  8.3917082440947E-07  1.6882871252505E-07
123  1.2200000000000E+00  0.0000000000000E+00  0.0000000000000E+00
124  1.2300000000000E+00  0.0000000000000E+00  0.0000000000000E+00
125  1.2400000000000E+00  0.0000000000000E+00  0.0000000000000E+00
126  1.2500000000000E+00  0.0000000000000E+00  0.0000000000000E+00
127  1.2600000000000E+00  0.0000000000000E+00  0.0000000000000E+00
128  1.2700000000000E+00  0.0000000000000E+00  0.0000000000000E+00
129  1.2800000000000E+00  0.0000000000000E+00  0.0000000000000E+00
130  1.2900000000000E+00  0.0000000000000E+00  0.0000000000000E+00
131  1.3000000000000E+00  0.0000000000000E+00  0.0000000000000E+00
132  1.3100000000000E+00  0.0000000000000E+00  0.0000000000000E+00
133  1.3200000000000E+00  0.0000000000000E+00  0.0000000000000E+00
134  1.3300000000000E+00  0.0000000000000E+00  0.0000000000000E+00
135  1.3400000000000E+00  0.0000000000000E+00  0.0000000000000E+00
136  1.3500000000000E+00  0.0000000000000E+00  0.0000000000000E+00
137  1.3600000000000E+00  0.0000000000000E+00  0.0000000000000E+00
138  1.3700000000000E+00  0.0000000000000E+00  0.0000000000000E+00
139  1.3800000000000E+00  0.0000000000000E+00  0.0000000000000E+00
140  1.3900000000000E+00  0.0000000000000E+00  0.0000000000000E+00
141  1.4000000000000E+00  0.0000000000000E+00  0.0000000000000E+00
142  1.4100000000000E+00  0.0000000000000E+00  0.0000000000000E+00
143  1.4200000000000E+00  0.0000000000000E+00  0.0000000000000E+00
144  1.4300000000000E+00  0.0000000000000E+00  0.0000000000000E+00
145  1.4400000000000E+00  0.0000000000000E+00  0.0000000000000E+00
146  1.4500000000000E+00  0.0000000000000E+00  0.0000000000000E+00
147  1.4600000000000E+00  0.0000000000000E+00  0.0000000000000E+00
148  1.4700000000000E+00  0.0000000000000E+00  0.0000000000000E+00
149  1.4800000000000E+00  0.0000000000000E+00  0.0000000000000E+00
150  1.4900000000000E+00  0.0000000000000E+00  0.0000000000000E+00
151  1.5000000000000E+00  0.0000000000000E+00  0.0000000000000E+00
152  1.5100000000000E+00  0.0000000000000E+00  0.0000000000000E+00
153  1.5200000000000E+00  0.0000000000000E+00  0.0000000000000E+00
154  1.5300000000000E+00  0.0000000000000E+00  0.0000000000000E+00
155  1.5400000000000E+00  0.0000000000000E+00  0.0000000000000E+00
156  1.5500000000000E+00  0.0000000000000E+00  0.0000000000000E+00
157  1.5600000000000E+00  0.0000000000000E+00  0.0000000000000E+00
158  1.5700000000000E+00  0.0000000000000E+00  0.0000000000000E+00
159  1.5800000000000E+00  0.0000000000000E+00  0.0000000000000E+00
160  1.5900000000000E+00  0.0000000000000E+00  0.0000000000000E+00
161  1.6000000000000E+00  0.0000000000000E+00  0.0000000000000E+00
162  1.6100000000000E+00  0.0000000000000E+00  0.0000000000000E+00
163  1.6200000000000E+00  0.0000000000000E+00  0.0000000000000E+00
164  1.6300000000000E+00  0.0000000000000E+00  0.0000000000000E+00
165  1.6400000000000E+00  0.0000000000000E+00  0.0000000000000E+00
166  1.6500000000000E+00  0.0000000000000E+00  0.0000000000000E+00
167  1.6600000000000E+00  0.0000000000000E+00  0.0000000000000E+00
168  1.6700000000000E+00  0.0000000000000E+00  0.0000000000000E+00
169  1.6800000000000E+00  0.0000000000000E+00  0.0000000000000E+00
170  1.6900000000000E+00  0.0000000000000E+00  0.0000000000000E+00
171  1.7000000000000E+00  0.0000000000000E+00  0.0000000000000E+00
172  1.7100000000000E+00  0.0000000000000E+00  0.0000000000000E+00
173  1.7200000000000E+00  0.0000000000000E+00  0.0000000000000E+00
174  1.7300000000000E+00  0.0000000000000E+00  0.0000000000000E+00
175  1.7400000000000E+00  0.0000000000000E+00  0.0000000000000E+00
176  1.7500000000000E+00  0.0000000000000E+00  0.0000000000000E+00
177  1.7600000000000E+00  0.0000000000000E+00  0.0000000000000E+00
178  1.7700000000000E+00  0.0000000000000E+00  0.0000000000000E+00
179  1.7800000000000E+00  0.0000000000000E+00  0.0000000000000E+00
180  1.7900000000000E+00  0.0000000000000E+00  0.0000000000000E+00
181  1.8000000000000E+00  0.0000000000000E+00  0.0000000000000E+00
182  1.8100000000000E+00  0.0000000000000E+00  0.0000000000000E+00
183  1.8200000000000E+00  0.0000000000000E+00  0.0000000000000E+00
184  1.8300000000000E+00  0.0000000000000E+00  0.0000000000000E+00
185  1.8400000000000E+00  0.0000000000000E+00  0.0000000000000E+00
186  1.8500000000000E+00  0.0000000000000E+00  0.0000000000000E+00
187  1.8600000000000E+00  0.0000000000000E+00  0.0000000000000E+00
188  1.8700000000000E+00  0.0000000000000E+00  0.0000000000000E+00
189  1.8800000000000E+00  0.0000000000000E+00  0.0000000000000E+00
190  1.8900000000000E+00  0.0000000000000E+00  0.0000000000000E+00
191  1.9000000000000E+00  0.0000000000000E+00  0.0000000000000E+00
192  1.9100000000000E+00  0.0000000000000E+00  0.0000000000000E+00
193  1.9200000000000E+00  0.0000000000000E+00  0.0000000000000E+00
194  1.9300000000000E+00  0.0000000000000E+00  0.0000000000000E+00
195  1.9400000000000E+00  0.0000000000000E+00  0.0000000000000E+00
196  1.9500000000000E+00  0.0000000000000E+00  0.0000000000000E+00
197  1.9600000000000E+00  0.0000000000000E+00  0.0000000000000E+00
198  1.9700000000000E+00  0.0000000000000E+00  0.0000000000000E+00
199  1.9800000000000E+00  0.0000000000000E+00  0.0000000000000E+00
200  1.9900000000000E+00  0.0000000000000E+00  0.0000000000000E+00
201  2.0000000000000E+00  0.0000000000000E+00  0.0000000000000E+00
202  2.0100000000000E+00  0.0000000000000E+00  0.0000000000000E+00
203  2.0200000000000E+00  0.0000000000000E+00  0.0000000000000E+00
204  2.0300000000000E+00  0.0000000000000E+00  0.0000000000000E+00
205  2.0400000000000E+00  0.0000000000000E+00  0.0000000000000E+00
206  2.0500000000000E+00  0.0000000000000E+00  0.0000000000000E+00
207  2.0600000000000E+00  0.0000000000000E+00  0.0000000000000E+00
208  2.0700000000000E+00  0.0000000000000E+00  0.0000000000000E+00
209  2.0800000000000E+00  0.0000000000000E+00  0.0000000000000E+00
210  2.0900000000000E+00  0.0000000000000E+00  0.0000000000000E+00
211  2.1000000000000E+00  0.0000000000000E+00  0.0000000000000E+00
212  2.1100000000000E+00  0.0000000000000E+00  0.0000000000000E+00
213  2.1200000000000E+00  0.0000000000000E+00  0.0000000000000E+00
214  2.1300000000000E+00  0.0000000000000E+00  0.0000000000000E+00
215  2.1400000000000E+00  0.0000000000000E+00  0.0000000000000E+00
216  2.1500000000000E+00  0.0000000000000E+00  0.0000000000000E+00
217  2.1600000000000E+00  0.0000000000000E+00  0.0000000000000E+00
218  2.1700000000000E+00  0.0000000000000E+00  0.0000000000000E+00
219  2.1800000000000E+00  0.0000000000000E+00  0.0000000000000E+00
220  2.1900000000000E+00  0.0000000000000E+00  0.0000000000000E+00
221  2.2000000000000E+00  0.0000000000000E+00  0.0000000000000E+00
222  2.2100000000000E+00  0.0000000000000E+00  0.0000000000000E+00
223  2.2200000000000E+00  0.0000000000000E+00  0.0000000000000E+00
224  2.2300000000000E+00  0.0000000000000E+00  0.0000000000000E+00
225  2.2400000000000E+00  0.0000000000000E+00  0.0000000000000E+00
226  2.2500000000000E+00  0.0000000000000E+00  0.0000000000000E+00
227  2.2600000000000E+00  0.0000000000000E+00  0.0000000000000E+00
228  2.2700000000000E+00  0.0000000000000E+00  0.0000000000000E+00
229  2.2800000000000E+00  0.0000000000000E+00  0.0000000000000E+00
230  2.2900000000000E+00  0.0000000000000E+00  0.0000000000000E+00
231  2.3000000000000E+00  0.0000000000000E+00  0.0000000000000E+00
232  2.3100000000000E+00  0.0000000000000E+00  0.0000000000000E+00
233  2.3200000000000E+00  0.0000000000000E+00  0.0000000000000E+00
234  2.3300000000000E+00  0.0000000000000E+00  0.0000000000000E+00
235  2.3400000000000E+00  0.0000000000000E+00  0.0000000000000E+00
236  2.3500000000000E+00  0.0000000000000E+00  0.0000000000000E+00
237  2.3600000000000E+00  0.0000000000000E+00  0.0000000000000E+00
238  2.3700000000000E+00  0.0000000000000E+00  0.0000000000000E+00
239  2.3800000000000E+00  0.0000000000000E+00  0.0000000000000E+00
240  2.3900000000000E+00  0.0000000000000E+00  0.0000000000000E+00
241  2.4000000000000E+00  0.0000000000000E+00  0.0000000000000E+00
242  2.4100000000000E+00  0.0000000000000E+00  0.0000000000000E+00
243  2.4200000000000E+00  0.0000000000000E+00  0.0000000000000E+00
244  2.4300000000000E+00  0.0000000000000E+00  0.0000000000000E+00
245  2.4400000000000E+00  0.0000000000000E+00  0.0000000000000E+00
246  2.4500000000000E+00  0.0000000000000E+00  0.0000000000000E+00
247  2.4600000000000E+00  0.0000000000000E+00  0.0000000000000E+00
248  2.4700000000000E+00  0.0000000000000E+00  0.0000000000000E+00
249  2.4800000000000E+00  0.0000000000000E+00  0.0000000000000E+00
250  2.4900000000000E+00  0.0000000000000E+00  0.0000000000000E+00
251  2.5000000000000E+00  0.0000000000000E+00  0.0000000000000E+00
252  2.5100000000000E+00  0.0000000000000E+00  0.0000000000000E+00
253  2.5200000000000E+00  0.0000000000000E+00  0.0000000000000E+00
254  2.5300000000000E+00  0.0000000000000E+00  0.0000000000000E+00
255  2.5400000000000E+00  0.0000000000000E+00  0.0000000000000E+00
256  2.5500000000000E+00  0.0000000000000E+00  0.0000000000000E+00
257  2.5600000000000E+00  0.0000000000000E+00  0.0000000000000E+00
258  2.5700000000000E+00  0.0000000000000E+00  0.0000000000000E+00
259  2.5800000000000E+00  0.0000000000000E+00  0.0000000000000E+00
260  2.5900000000000E+00  0.0000000000000E+00  0.0000000000000E+00
261  2.6000000000000E+00  0.0000000000000E+00  0.0000000000000E+00
262  2.6100000000000E+00  0.0000000000000E+00  0.0000000000000E+00
263  2.6200000000000E+00  0.0000000000000E+00  0.0000000000000E+00
264  2.6300000000000E+00  0.0000000000000E+00  0.0000000000000E+00
265  2.6400000000000E+00  0.0000000000000E+00  0.0000000000000E+00
266  2.6500000000000E+00  0.0000000000000E+00  0.0000000000000E+00
267  2.6600000000000E+00  0.0000000000000E+00  0.0000000000000E+00
268  2.6700000000000E+00  0.0000000000000E+00  0.0000000000000E+00
269  2.6800000000000E+00  0.0000000000000E+00  0.0000000000000E+00
270  2.6900000000000E+00  0.0000000000000E+00  0.0000000000000E+00
271  2.7000000000000E+00  0.0000000000000E+00  0.0000000000000E+00
272  2.7100000000000E+00  0.0000000000000E+00  0.0000000000000E+00
273  2.7200000000000E+00  0.0000000000000E+00  0.0000000000000E+00
274  2.7300000000000E+00  0.0000000000000E+00  0.0000000000000E+00
275  2.7400000000000E+00  0.0000000000000E+00  0.0000000000000E+00
276  2.7500000000000E+00  0.0000000000000E+00  0.0000000000000E+00
277  2.7600000000000E+00  0.0000000000000E+00  0.0000000000000E+00
278  2.7700000000000E+00  0.0000000000000E+00  0.0000000000000E+00
279  2.7800000000000E+00  0.0000000000000E+00  0.0000000000000E+00
280  2.7900000000000E+00  0.0000000000000E+00  0.0000000000000E+00
281  2.8000000000000E+00  0.0000000000000E+00  0.0000000000000E+00
282  2.8100000000000E+00  0.0000000000000E+00  0.0000000000000E+00
283  2.8200000000000E+00  0.0000000000000E+00  0.0000000000000E+00
284  2.8300000000000E+00  0.0000000000000E+00  0.0000000000000E+00
285  2.8400000000000E+00  0.0000000000000E+00  0.0000000000000E+00
286  2.8500000000000E+00  0.0000000000000E+00  0.0000000000000E+00
287  2.8600000000000E+00  0.0000000000000E+00  0.0000000000000E+00
288  2.8700000000000E+00  0.0000000000000E+00  0.0000000000000E+00
289  2.8800000000000E+00  0.0000000000000E+00  0.0000000000000E+00
290  2.8900000000000E+00  0.0000000000000E+00  0.0000000000000E+00
291  2.9000000000000E+00  0.0000000000000E+00  0.0000000000000E+00
292  2.9100000000000E+00  0.0000000000000E+00  0.0000000000000E+00
293  2.9200000000000E+00  0.0000000000000E+00  0.0000000000000E+00
294  2.9300000000000E+00  0.0000000000000E+00  0.0000000000000E+00
295  2.9400000000000E+00  0.0000000000000E+00  0.0000000000000E+00
296  2.9500000000000E+00  0.0000000000000E+00  0.0000000000000E+00
297  2.9600000000000E+00  0.0000000000000E+00  0.0000000000000E+00
298  2.9700000000000E+00  0.0000000000000E+00  0.0000000000000E+00
299  2.9800000000000E+00  0.0000000000000E+00  0.0000000000000E+00
300  2.9900000000000E+00  0.0000000000000E+00  0.0000000000000E+00
301  3.0000000000000E+00  0.0000000000000E+00  0.0000000000000E+00
302  3.0100000000000E+00  0.0000000000000E+00  0.0000000000000E+00
303  3.0200000000000E+00  0.0000000000000E+00  0.0000000000000E+00
304  3.0300000000000E+00  0.0000000000000E+00  0.0000000000000E+00
305  3.0400000000000E+00  0.0000000000000E+00  0.0000000000000E+00
306  3.0500000000000E+00  0.0000000000000E+00  0.0000000000000E+00
307  3.0600000000000E+00  0.0000000000000E+00  0.0000000000000E+00
308  3.0700000000000E+00  0.0000000000000E+00  0.0000000000000E+00
309  3.0800000000000E+00  0.0000000000000E+00  0.0000000000000E+00
310  3.0900000000000E+00  0.0000000000000E+00  0.0000000000000E+00
311  3.1000000000000E+00  0.0000000000000E+00  0.0000000000000E+00
312  3.1100000000000E+00  0.0000000000000E+00  0.0000000000000E+00
313  3.1200000000000E+00  0.0000000000000E+00  0.0000000000000E+00
314  3.1300000000000E+00  0.0000000000000E+00  0.0000000000000E+00
315  3.1400000000000E+00  0.0000000000000E+00  0.0000000000000E+00
316  3.1500000000000E+00  0.0000000000000E+00  0.0000000000000E+00
317  3.1600000000000E+00  0.0000000000000E+00  0.0000000000000E+00
318  3.1700000000000E+00  0.0000000000000E+00  0.0000000000000E+00
319  3.1800000000000E+00  0.0000000000000E+00  0.0000000000000E+00
320  3.1900000000000E+00  0.0000000000000E+00  0.0000000000000E+00
321  3.2000000000000E+00  0.0000000000000E+00  0.0000000000000E+00
322  3.2100000000000E+00  0.0000000000000E+00  0.0000000000000E+00
323  3.2200000000000E+00  0.0000000000000E+00  0.0000000000000E+00
324  3.2300000000000E+00  0.0000000000000E+00  0.0000000000000E+00
325  3.2400000000000E+00  0.0000000000000E+00  0.0000000000000E+00
326  3.2500000000000E+00  0.0000000000000E+00  0.0000000000000E+00
327  3.2600000000000E+00  0.0000000000000E+00  0.0000000000000E+00
328  3.2700000000000E+00  0.0000000000000E+00  0.0000000000000E+00
329  3.2800000000000E+00  0.0000000000000E+00  0.0000000000000E+00
330  3.2900000000000E+00  0.0000000000000E+00  0.0000000000000E+00
331  3.3000000000000E+00  0.0000000000000E+00  0.0000000000000E+00
332  3.3100000000000E+00  0.0000000000000E+00  0.0000000000000E+00
333  3.3200000000000E+00  0.0000000000000E+00  0.0000000000000E+00
334  3.3300000000000E+00  0.0000000000000E+00  0.0000000000000E+00
335  3.3400000000000E+00  0.0000000000000E+00  0.0000000000000E+00
336  3.3500000000000E+00  0.0000000000000E+00  0.0000000000000E+00
337  3.3600000000000E+00  0.0000000000000E+00  0.0000000000000E+00
338  3.3700000000000E+00  0.0000000000000E+00  0.0000000000000E+00
339  3.3800000000000E+00  0.0000000000000E+00  0.0000000000000E+00
340  3.3900000000000E+00  0.0000000000000E+00  0.0000000000000E+00
341  3.4000000000000E+00  0.0000000000000E+00  0.0000000000000E+00
342  3.4100000000000E+00  0.0000000000000E+00  0.0000000000000E+00
343  3.4200000000000E+00  0.0000000000000E+00  0.0000000000000E+00
344  3.4300000000000E+00  0.0000000000000E+00  0.0000000000000E+00
345  3.4400000000000E+00  0.0000000000000E+00  0.0000000000000E+00
346  3.4500000000000E+00  0.0000000000000E+00  0.0000000000000E+00
347  3.4600000000000E+00  0.0000000000000E+00  0.0000000000000E+00
348  3.4700000000000E+00  0.0000000000000E+00  0.0000000000000E+00
349  3.4800000000000E+00  0.0000000000000E+00  0.0000000000000E+00
350  3.4900000000000E+00  0.0000000000000E+00  0.0000000000000E+00
351  3.5000000000000E+00  0.0000000000000E+00  0.0000000000000E+00
352  3.5100000000000E+00  0.0000000000000E+00  0.0000000000000E+00
353  3.5200000000000E+00  0.0000000000000E+00  0.0000000000000E+00
354  3.5300000000000E+00  0.0000000000000E+00  0.0000000000000E+00
355  3.5400000000000E+00  0.0000000000000E+00  0.0000000000000E+00
356  3.5500000000000E+00  0.0000000000000E+00  0.0000000000000E+00
357  3.5600000000000E+00  0.0000000000000E+00  0.0000000000000E+00
358  3.5700000000000E+00  0.0000000000000E+00  0.0000000000000E+00
359  3.5800000000000E+00  0.0000000000000E+00  0.0000000000000E+00
360  3.5900000000000E+00  0.0000000000000E+00  0.0000000000000E+00
361  3.6000000000000E+00  0.0000000000000E+00  0.0000000000000E+00
362  3.6100000000000E+00  0.0000000000000E+00  0.0000000000000E+00
363  3.6200000000000E+00  0.0000000000000E+00  0.0000000000000E+00
364  3.6300000000000E+00  0.0000000000000E+00  0.0000000000000E+00
365  3.6400000000000E+00  0.0000000000000E+00  0.0000000000000E+00
366  3.6500000000000E+00  0.0000000000000E+00  0.0000000000000E+00
367  3.6600000000000E+00  0.0000000000000E+00  0.0000000000000E+00
368  3.6700000000000E+00  0.0000000000000E+00  0.0000000000000E+00
369  3.6800000000000E+00  0.0000000000000E+00  0.0000000000000E+00
370  3.6900000000000E+00  0.0000000000000E+00  0.0000000000000E+00
371  3.7000000000000E+00  0.0000000000000E+00  0.0000000000000E+00
372  3.7100000000000E+00  0.0000000000000E+00  0.0000000000000E+00
373  3.7200000000000E+00  0.0000000000000E+00  0.0000000000000E+00
374  3.7300000000000E+00  0.0000000000000E+00  0.0000000000000E+00
375  3.7400000000000E+00  0.0000000000000E+00  0.0000000000000E+00
376  3.7500000000000E+00  0.0000000000000E+00  0.0000000000000E+00
377  3.7600000000000E+00  0.0000000000000E+00  0.0000000000000E+00
378  3.7700000000000E+00  0.0000000000000E+00  0.0000000000000E+00
379  3.7800000000000E+00  0.0000000000000E+00  0.0000000000000E+00
380  3.7900000000000E+00  0.0000000000000E+00  0.0000000000000E+00
381  3.8000000000000E+00  0.0000000000000E+00  0.0000000000000E+00
382  3.8100000000000E+00  0.0000000000000E+00  0.0000000000000E+00
383  3.8200000000000E+00  0.0000000000000E+00  0.0000000000000E+00
384  3.8300000000000E+00  0.0000000000000E+00  0.0000000000000E+00
385  3.8400000000000E+00  0.0000000000000E+00  0.0000000000000E+00
386  3.8500000000000E+00  0.0000000000000E+00  0.0000000000000E+00
387  3.8600000000000E+00  0.0000000000000E+00  0.0000000000000E+00
388  3.8700000000000E+00  0.0000000000000E+00  0.0000000000000E+00
389  3.8800000000000E+00  0.0000000000000E+00  0.0000000000000E+00
390  3.8900000000000E+00  0.0000000000000E+00  0.0000000000000E+00
391  3.9000000000000E+00  0.0000000000000E+00  0.0000000000000E+00
392  3.9100000000000E+00  0.0000000000000E+00  0.0000000000000E+00
393  3.9200000000000E+00  0.0000000000000E+00  0.0000000000000E+00
394  3.9300000000000E+00  0.0000000000000E+00  0.0000000000000E+00
395  3.9400000000000E+00  0.0000000000000E+00  0.0000000000000E+00
396  3.9500000000000E+00  0.0000000000000E+00  0.0000000000000E+00
397  3.9600000000000E+00  0.0000000000000E+00  0.0000000000000E+00
398  3.9700000000000E+00  0.0000000000000E+00  0.0000000000000E+00
399  3.9800000000000E+00  0.0000000000000E+00  0.0000000000000E+00
400  3.9900000000000E+00  0.0000000000000E+00  0.0000000000000E+00
1                        -6.6059006599294E+00 -2.6640738394070E+00
1  0.0000000000000E+00 -1.5312735801576E-10  1.4948718651819E-10
2  1.0000000000000E-02  1.9788414369714E-03 -7.3726653227649E-04
3  2.0000000000000E-02  7.9068700517186E-03 -2.9429425559153E-03
4  3.0000000000000E-02  1.7758623036102E-02 -6.5986802384698E-03
5  4.0000000000000E-02  3.1491743414128E-02 -1.1673976254298E-02
6  5.0000000000000E-02  4.9047101955567E-02 -1.8126286739520E-02
7  6.0000000000000E-02  7.0348968557440E-02 -2.5901188940022E-02
8  7.0000000000000E-02  9.5305233767741E-02 -3.4932590231725E-02
9  8.0000000000000E-02  1.2380768127888E-01 -4.5142985341824E-02
10  9.0000000000000E-02  1.5573231234261E-01 -5.6443762716528E-02
11  1.0000000000000E-01  1.9093972314816E-01 -6.8735561058965E-02
12  1.1000000000000E-01  2.2927553625599E-01 -8.1908677095096E-02
13  1.2000000000000E-01  2.7057088718701E-01 -9.5843525610646E-02
14  1.3000000000000E-01  3.1464296722659E-01 -1.1041115273455E-01
15  1.4000000000000E-01  3.6129562341334E-01 -1.2547380332102E-01
16  1.5000000000000E-01  4.1032001654000E-01 -1.4088554310131E-01
17  1.6000000000000E-01  4.6149533779864E-01 -1.5649293603595E-01
18  1.7000000000000E-01  5.1458958445334E-01 -1.7213577699959E-01
19  1.8000000000000E-01  5.6936039462161E-01 -1.8764787957339E-01
20  1.9000000000000E-01  6.2555594089229E-01 -2.0285791830799E-01
21  2.0000000000000E-01  6.8291588210517E-01 -2.1759032435451E-01
22  2.1000000000000E-01  7.4117237216939E-01 -2.3166623284832E-01
23  2.2000000000000E-01  8.0005112430777E-01 -2.4490447987377E-01
24  2.3000000000000E-01  8.5927252858770E-01 -2.5712264624522E-01
25  2.4000000000000E-01  9.1855282004206E-01 -2.6813814471640E-01
26  2.5000000000000E-01  9.7760529410187E-01 -2.7776934658580E-01
27  2.6000000000000E-01  1.0361415654633E+00 -2.8583674300688E-01
28  2.7000000000000E-01  1.0938728659028E+00 -2.9216413564959E-01
29  2.8000000000000E-01  1.1505113759442E+00 -2.9657985070216E-01
30  2.9000000000000E-01  1.2057715846769E+00 -2.9891796955978E-01
31  3.0000000000000E-01  1.2593716714374E+00 -2.9901956893008E-01
32  3.1000000000000E-01  1.3110349025001E+00 -2.9673396250369E-01
33  3.2000000000000E-01  1.3604910353947E+00 -2.9191993580289E-01
34  3.3000000000000E-01  1.4074777229735E+00 -2.8444696534094E-01
35  3.4000000000000E-01  1.4517419089178E+00 -2.7419641281018E-01
36  3.5000000000000E-01  1.4930412059830E+00 -2.6106268467639E-01
37  3.6000000000000E-01  1.5311452479731E+00 -2.4495434729915E-01
38  3.7000000000000E-01  1.5658370061852E+00 -2.2579518753057E-01
39  3.8000000000000E-01  1.5969140609030E+00 -2.0352520867466E-01
40  3.9000000000000E-01  1.6241898184364E+00 -1.7810155172224E-01
41  4.0000000000000E-01  1.6474946642121E+00 -1.4949933191658E-01
42  4.1000000000000E-01  1.6666770425221E+00 -1.1771238095617E-01
43  4.2000000000000E-01  1.6816044537337E+00 -8.2753885505303E-02