N     ONCVPSP-3.3.1  r_core=   1.20551   1.35824
      7.0000      5.0000      180329    zatom,zion,pspd
     8       2   1     4   600     0    pspcod,pspxc,lmax,lloc,mmax,r2well
  5.99000000  0.00000000  0.00000000    rchrg fchrg qchrg
     2     2     0     0     0    nproj
     1     1           extension_switch
   0                         7.3206410781018e+00  5.8653118861649e-01
     1  0.0000000000000e+00  9.6875862887202e-10 -5.8616534265310e-09
     2  1.0000000000000e-02  9.0432669706499e-02 -7.7464666255835e-03
     3  2.0000000000000e-02  1.8065673497922e-01 -1.5691571494430e-02
     4  3.0000000000000e-02  2.7046341473416e-01 -2.4028252376105e-02
     5  4.0000000000000e-02  3.5964359144583e-01 -3.2938139047460e-02
     6  5.0000000000000e-02  4.4798768258760e-01 -4.2586134833538e-02
     7  6.0000000000000e-02  5.3528555667683e-01 -5.3115281270103e-02
     8  7.0000000000000e-02  6.2132650655658e-01 -6.4641995433770e-02
     9  8.0000000000000e-02  7.0589929157694e-01 -7.7251763624060e-02
    10  9.0000000000000e-02  7.8879225914792e-01 -9.0995367976327e-02
    11  1.0000000000000e-01  8.6979355474027e-01 -1.0588571433794e-01
    12  1.1000000000000e-01  9.4869142783189e-01 -1.2189532047029e-01
    13  1.2000000000000e-01  1.0252746395597e+00 -1.3895451348040e-01
    14  1.3000000000000e-01  1.0993329759673e+00 -1.5695037448444e-01
    15  1.4000000000000e-01  1.1706578687647e+00 -1.7572645701945e-01
    16  1.5000000000000e-01  1.2390431234729e+00 -1.9508329381505e-01
    17  1.6000000000000e-01  1.3042857527368e+00 -2.1477969438588e-01
    18  1.7000000000000e-01  1.3661869104989e+00 -2.3453482368449e-01
    19  1.8000000000000e-01  1.4245529206570e+00 -2.5403103994043e-01
    20  1.9000000000000e-01  1.4791963918170e+00 -2.7291745797854e-01
    21  2.0000000000000e-01  1.5299374078326e+00 -2.9081419293145e-01
    22  2.1000000000000e-01  1.5766047820255e+00 -3.0731722850141e-01
    23  2.2000000000000e-01  1.6190373613276e+00 -3.2200384394137e-01
    24  2.3000000000000e-01  1.6570853651184e+00 -3.3443852486082e-01
    25  2.4000000000000e-01  1.6906117422594e+00 -3.4417927494865e-01
    26  2.5000000000000e-01  1.7194935287822e+00 -3.5078423886288e-01
    27  2.6000000000000e-01  1.7436231878860e+00 -3.5381854096378e-01
    28  2.7000000000000e-01  1.7629099133538e+00 -3.5286124034793e-01
    29  2.8000000000000e-01  1.7772808772231e+00 -3.4751229983822e-01
    30  2.9000000000000e-01  1.7866824025497e+00 -3.3739946524420e-01
    31  3.0000000000000e-01  1.7910810423850e+00 -3.2218495135121e-01
    32  3.1000000000000e-01  1.7904645466544e+00 -3.0157183272858e-01
    33  3.2000000000000e-01  1.7848426994653e+00 -2.7531004054938e-01
    34  3.3000000000000e-01  1.7742480104806e+00 -2.4320187114706e-01
    35  3.4000000000000e-01  1.7587362453643e+00 -2.0510691794211e-01
    36  3.5000000000000e-01  1.7383867819087e+00 -1.6094634557336e-01
    37  3.6000000000000e-01  1.7133027802831e+00 -1.1070643347220e-01
    38  3.7000000000000e-01  1.6836111578711e+00 -5.4441325608605e-02
    39  3.8000000000000e-01  1.6494623613614e+00  7.7250664111452e-03
    40  3.9000000000000e-01  1.6110299311042e+00  7.5598048443381e-02
    41  4.0000000000000e-01  1.5685098552046e+00  1.4891204671458e-01
    42  4.1000000000000e-01  1.5221197133661e+00  2.2733144570601e-01
    43  4.2000000000000e-01  1.4720976130891e+00  3.1045236540688e-01
    44  4.3000000000000e-01  1.4187009234345e+00  3.9780536938936e-01
    45  4.4000000000000e-01  1.3622048141464e+00  4.8885908223710e-01
    46  4.5000000000000e-01  1.3029006104606e+00  5.8302468213202e-01
    47  4.6000000000000e-01  1.2410939763580e+00  6.7966122204774e-01
    48  4.7000000000000e-01  1.1771029413449e+00  7.7808172118197e-01
    49  4.8000000000000e-01  1.1112557879925e+00  8.7755995715201e-01
    50  4.9000000000000e-01  1.0438888194472e+00  9.7733787922940e-01
    51  5.0000000000000e-01  9.7534402787424e-01  1.0766335536513e+00
    52  5.1000000000000e-01  9.0596668631725e-01  1.1746495439428e+00
    53  5.2000000000000e-01  8.3610288770796e-01  1.2705816223413e+00
    54  5.3000000000000e-01  7.6609705573026e-01  1.3636277029236e+00
    55  5.4000000000000e-01  6.9628945291607e-01  1.4529968829899e+00
    56  5.5000000000000e-01  6.2701371171116e-01  1.5379184767154e+00
    57  5.6000000000000e-01  5.5859441429347e-01  1.6176509240824e+00
    58  5.7000000000000e-01  4.9134474664714e-01  1.6914904586866e+00
    59  5.8000000000000e-01  4.2556425179544e-01  1.7587794201623e+00
    60  5.9000000000000e-01  3.6153670617814e-01  1.8189141006840e+00
    61  6.0000000000000e-01  2.9952814193374e-01  1.8713520202250e+00
    62  6.1000000000000e-01  2.3978503632308e-01  1.9156185319544e+00
    63  6.2000000000000e-01  1.8253268773712e-01  1.9513126671930e+00
    64  6.3000000000000e-01  1.2797379566479e-01  1.9781121387383e+00
    65  6.4000000000000e-01  7.6287259717147e-02  1.9957774318269e+00
    66  6.5000000000000e-01  2.7627210299978e-02  2.0041549235785e+00
    67  6.6000000000000e-01 -1.7877719145939e-02  2.0031789841946e+00
    68  6.7000000000000e-01 -6.0124871222021e-02  1.9928730262868e+00
    69  6.8000000000000e-01 -9.9037790782609e-02  1.9733494824504e+00
    70  6.9000000000000e-01 -1.3456619708037e-01  1.9448087052432e+00
    71  7.0000000000000e-01 -1.6668570367516e-01  1.9075367980030e+00
    72  7.1000000000000e-01 -1.9539729093514e-01  1.8619023991112e+00
    73  7.2000000000000e-01 -2.2072653894663e-01  1.8083524564455e+00
    74  7.3000000000000e-01 -2.4272263151604e-01  1.7474070423439e+00
    75  7.4000000000000e-01 -2.6145714470990e-01  1.6796532724980e+00
    76  7.5000000000000e-01 -2.7702263597667e-01  1.6057384045071e+00
    77  7.6000000000000e-01 -2.8953105228807e-01  1.5263622031729e+00
    78  7.7000000000000e-01 -2.9911197791423e-01  1.4422686699208e+00
    79  7.8000000000000e-01 -3.0591074435488e-01  1.3542372427506e+00
    80  7.9000000000000e-01 -3.1008642657160e-01  1.2630735807682e+00
    81  8.0000000000000e-01 -3.1180975098066e-01  1.1696000535079e+00
    82  8.1000000000000e-01 -3.1126094164867e-01  1.0746460598122e+00
    83  8.2000000000000e-01 -3.0862753177098e-01  9.7903830392671e-01
    84  8.3000000000000e-01 -3.0410216779398e-01  8.8359115762995e-01
    85  8.4000000000000e-01 -2.9788043346021e-01  7.8909723661990e-01
    86  8.5000000000000e-01 -2.9015872060880e-01  6.9631831701686e-01
    87  8.6000000000000e-01 -2.8113217275601e-01  6.0597671372264e-01
    88  8.7000000000000e-01 -2.7099272631929e-01  5.1874723654531e-01
    89  8.8000000000000e-01 -2.5992727284731e-01  4.3524983251352e-01
    90  8.9000000000000e-01 -2.4811596379406e-01  3.5604301375192e-01
    91  9.0000000000000e-01 -2.3573067725076e-01  2.8161815977804e-01
    92  9.1000000000000e-01 -2.2293366365044e-01  2.1239477123709e-01
    93  9.2000000000000e-01 -2.0987638481761e-01  1.4871673906332e-01
    94  9.3000000000000e-01 -1.9669855788258e-01  9.0849679010425e-02
    95  9.4000000000000e-01 -1.8352741255474e-01  3.8979366609206e-02
    96  9.5000000000000e-01 -1.7047716708999e-01 -6.7887079180846e-03
    97  9.6000000000000e-01 -1.5764872504365e-01 -4.6428661194366e-02
    98  9.7000000000000e-01 -1.4512959156854e-01 -7.9992427442168e-02
    99  9.8000000000000e-01 -1.3299400479015e-01 -1.0760688706113e-01
   100  9.9000000000000e-01 -1.2130327445391e-01 -1.2946995800598e-01
   101  1.0000000000000e+00 -1.1010631690115e-01 -1.4584571032527e-01
   102  1.0100000000000e+00 -9.9440372390124e-02 -1.5705857912127e-01
   103  1.0200000000000e+00 -8.9331887901293e-02 -1.6348676527870e-01
   104  1.0300000000000e+00 -7.9797545917305e-02 -1.6555492627126e-01
   105  1.0400000000000e+00 -7.0845417215554e-02 -1.6372627134076e-01
   106  1.0500000000000e+00 -6.2476213738475e-02 -1.5849418497463e-01
   107  1.0600000000000e+00 -5.4684615592672e-02 -1.5037351241680e-01
   108  1.0700000000000e+00 -4.7460644937596e-02 -1.3989164720783e-01
   109  1.0800000000000e+00 -4.0791058362042e-02 -1.2757956636483e-01
   110  1.0900000000000e+00 -3.4660728687243e-02 -1.1396296193539e-01
   111  1.1000000000000e+00 -2.9053986780336e-02 -9.9553619308734e-02
   112  1.1100000000000e+00 -2.3955894065306e-02 -8.4841191999075e-02
   113  1.1200000000000e+00 -1.9353416919970e-02 -7.0285520026314e-02
   114  1.1300000000000e+00 -1.5236475166496e-02 -5.6309633828629e-02
   115  1.1400000000000e+00 -1.1598837911683e-02 -4.3293580337674e-02
   116  1.1500000000000e+00 -8.4388418141598e-03 -3.1569198677599e-02
   117  1.1600000000000e+00 -5.7599088549547e-03 -2.1415962913937e-02
   118  1.1700000000000e+00 -3.5721930774458e-03 -1.3062323256330e-02
   119  1.1800000000000e+00 -1.8814619437332e-03 -6.6482137465256e-03
   120  1.1900000000000e+00 -7.2164421496028e-04 -2.3293916178371e-03
   121  1.2000000000000e+00 -1.4115393098682e-04 -2.3371079712488e-04
   122  1.2100000000000e+00  1.8020221491424e-05  2.1617350688306e-04
   123  1.2200000000000e+00 -5.5648705229629e-08 -3.9522293423910e-07
   124  1.2300000000000e+00 -6.0534369452142e-06 -3.7628603669574e-05
   125  1.2400000000000e+00  1.2170579529591e-06  9.3622336873540e-06
   126  1.2500000000000e+00  6.9760634769163e-09 -6.5214821117996e-08
   127  1.2600000000000e+00  3.7450665504070e-08 -3.5010267032109e-07
   128  1.2700000000000e+00  0.0000000000000e+00  0.0000000000000e+00
   129  1.2800000000000e+00  0.0000000000000e+00  0.0000000000000e+00
   130  1.2900000000000e+00  0.0000000000000e+00  0.0000000000000e+00
   131  1.3000000000000e+00  0.0000000000000e+00  0.0000000000000e+00
   132  1.3100000000000e+00  0.0000000000000e+00  0.0000000000000e+00
   133  1.3200000000000e+00  0.0000000000000e+00  0.0000000000000e+00
   134  1.3300000000000e+00  0.0000000000000e+00  0.0000000000000e+00
   135  1.3400000000000e+00  0.0000000000000e+00  0.0000000000000e+00
   136  1.3500000000000e+00  0.0000000000000e+00  0.0000000000000e+00
   137  1.3600000000000e+00  0.0000000000000e+00  0.0000000000000e+00
   138  1.3700000000000e+00  0.0000000000000e+00  0.0000000000000e+00
   139  1.3800000000000e+00  0.0000000000000e+00  0.0000000000000e+00
   140  1.3900000000000e+00  0.0000000000000e+00  0.0000000000000e+00
   141  1.4000000000000e+00  0.0000000000000e+00  0.0000000000000e+00
   142  1.4100000000000e+00  0.0000000000000e+00  0.0000000000000e+00
   143  1.4200000000000e+00  0.0000000000000e+00  0.0000000000000e+00
   144  1.4300000000000e+00  0.0000000000000e+00  0.0000000000000e+00
   145  1.4400000000000e+00  0.0000000000000e+00  0.0000000000000e+00
   146  1.4500000000000e+00  0.0000000000000e+00  0.0000000000000e+00
   147  1.4600000000000e+00  0.0000000000000e+00  0.0000000000000e+00
   148  1.4700000000000e+00  0.0000000000000e+00  0.0000000000000e+00
   149  1.4800000000000e+00  0.0000000000000e+00  0.0000000000000e+00
   150  1.4900000000000e+00  0.0000000000000e+00  0.0000000000000e+00
   151  1.5000000000000e+00  0.0000000000000e+00  0.0000000000000e+00
   152  1.5100000000000e+00  0.0000000000000e+00  0.0000000000000e+00
   153  1.5200000000000e+00  0.0000000000000e+00  0.0000000000000e+00
   154  1.5300000000000e+00  0.0000000000000e+00  0.0000000000000e+00
   155  1.5400000000000e+00  0.0000000000000e+00  0.0000000000000e+00
   156  1.5500000000000e+00  0.0000000000000e+00  0.0000000000000e+00
   157  1.5600000000000e+00  0.0000000000000e+00  0.0000000000000e+00
   158  1.5700000000000e+00  0.0000000000000e+00  0.0000000000000e+00
   159  1.5800000000000e+00  0.0000000000000e+00  0.0000000000000e+00
   160  1.5900000000000e+00  0.0000000000000e+00  0.0000000000000e+00
   161  1.6000000000000e+00  0.0000000000000e+00  0.0000000000000e+00
   162  1.6100000000000e+00  0.0000000000000e+00  0.0000000000000e+00
   163  1.6200000000000e+00  0.0000000000000e+00  0.0000000000000e+00
   164  1.6300000000000e+00  0.0000000000000e+00  0.0000000000000e+00
   165  1.6400000000000e+00  0.0000000000000e+00  0.0000000000000e+00
   166  1.6500000000000e+00  0.0000000000000e+00  0.0000000000000e+00
   167  1.6600000000000e+00  0.0000000000000e+00  0.0000000000000e+00
   168  1.6700000000000e+00  0.0000000000000e+00  0.0000000000000e+00
   169  1.6800000000000e+00  0.0000000000000e+00  0.0000000000000e+00
   170  1.6900000000000e+00  0.0000000000000e+00  0.0000000000000e+00
   171  1.7000000000000e+00  0.0000000000000e+00  0.0000000000000e+00
   172  1.7100000000000e+00  0.0000000000000e+00  0.0000000000000e+00
   173  1.7200000000000e+00  0.0000000000000e+00  0.0000000000000e+00
   174  1.7300000000000e+00  0.0000000000000e+00  0.0000000000000e+00
   175  1.7400000000000e+00  0.0000000000000e+00  0.0000000000000e+00
   176  1.7500000000000e+00  0.0000000000000e+00  0.0000000000000e+00
   177  1.7600000000000e+00  0.0000000000000e+00  0.0000000000000e+00
   178  1.7700000000000e+00  0.0000000000000e+00  0.0000000000000e+00
   179  1.7800000000000e+00  0.0000000000000e+00  0.0000000000000e+00
   180  1.7900000000000e+00  0.0000000000000e+00  0.0000000000000e+00
   181  1.8000000000000e+00  0.0000000000000e+00  0.0000000000000e+00
   182  1.8100000000000e+00  0.0000000000000e+00  0.0000000000000e+00
   183  1.8200000000000e+00  0.0000000000000e+00  0.0000000000000e+00
   184  1.8300000000000e+00  0.0000000000000e+00  0.0000000000000e+00
   185  1.8400000000000e+00  0.0000000000000e+00  0.0000000000000e+00
   186  1.8500000000000e+00  0.0000000000000e+00  0.0000000000000e+00
   187  1.8600000000000e+00  0.0000000000000e+00  0.0000000000000e+00
   188  1.8700000000000e+00  0.0000000000000e+00  0.0000000000000e+00
   189  1.8800000000000e+00  0.0000000000000e+00  0.0000000000000e+00
   190  1.8900000000000e+00  0.0000000000000e+00  0.0000000000000e+00
   191  1.9000000000000e+00  0.0000000000000e+00  0.0000000000000e+00
   192  1.9100000000000e+00  0.0000000000000e+00  0.0000000000000e+00
   193  1.9200000000000e+00  0.0000000000000e+00  0.0000000000000e+00
   194  1.9300000000000e+00  0.0000000000000e+00  0.0000000000000e+00
   195  1.9400000000000e+00  0.0000000000000e+00  0.0000000000000e+00
   196  1.9500000000000e+00  0.0000000000000e+00  0.0000000000000e+00
   197  1.9600000000000e+00  0.0000000000000e+00  0.0000000000000e+00
   198  1.9700000000000e+00  0.0000000000000e+00  0.0000000000000e+00
   199  1.9800000000000e+00  0.0000000000000e+00  0.0000000000000e+00
   200  1.9900000000000e+00  0.0000000000000e+00  0.0000000000000e+00
   201  2.0000000000000e+00  0.0000000000000e+00  0.0000000000000e+00
   202  2.0100000000000e+00  0.0000000000000e+00  0.0000000000000e+00
   203  2.0200000000000e+00  0.0000000000000e+00  0.0000000000000e+00
   204  2.0300000000000e+00  0.0000000000000e+00  0.0000000000000e+00
   205  2.0400000000000e+00  0.0000000000000e+00  0.0000000000000e+00
   206  2.0500000000000e+00  0.0000000000000e+00  0.0000000000000e+00
   207  2.0600000000000e+00  0.0000000000000e+00  0.0000000000000e+00
   208  2.0700000000000e+00  0.0000000000000e+00  0.0000000000000e+00
   209  2.0800000000000e+00  0.0000000000000e+00  0.0000000000000e+00
   210  2.0900000000000e+00  0.0000000000000e+00  0.0000000000000e+00
   211  2.1000000000000e+00  0.0000000000000e+00  0.0000000000000e+00
   212  2.1100000000000e+00  0.0000000000000e+00  0.0000000000000e+00
   213  2.1200000000000e+00  0.0000000000000e+00  0.0000000000000e+00
   214  2.1300000000000e+00  0.0000000000000e+00  0.0000000000000e+00
   215  2.1400000000000e+00  0.0000000000000e+00  0.0000000000000e+00
   216  2.1500000000000e+00  0.0000000000000e+00  0.0000000000000e+00
   217  2.1600000000000e+00  0.0000000000000e+00  0.0000000000000e+00
   218  2.1700000000000e+00  0.0000000000000e+00  0.0000000000000e+00
   219  2.1800000000000e+00  0.0000000000000e+00  0.0000000000000e+00
   220  2.1900000000000e+00  0.0000000000000e+00  0.0000000000000e+00
   221  2.2000000000000e+00  0.0000000000000e+00  0.0000000000000e+00
   222  2.2100000000000e+00  0.0000000000000e+00  0.0000000000000e+00
   223  2.2200000000000e+00  0.0000000000000e+00  0.0000000000000e+00
   224  2.2300000000000e+00  0.0000000000000e+00  0.0000000000000e+00
   225  2.2400000000000e+00  0.0000000000000e+00  0.0000000000000e+00
   226  2.2500000000000e+00  0.0000000000000e+00  0.0000000000000e+00
   227  2.2600000000000e+00  0.0000000000000e+00  0.0000000000000e+00
   228  2.2700000000000e+00  0.0000000000000e+00  0.0000000000000e+00
   229  2.2800000000000e+00  0.0000000000000e+00  0.0000000000000e+00
   230  2.2900000000000e+00  0.0000000000000e+00  0.0000000000000e+00
   231  2.3000000000000e+00  0.0000000000000e+00  0.0000000000000e+00
   232  2.3100000000000e+00  0.0000000000000e+00  0.0000000000000e+00
   233  2.3200000000000e+00  0.0000000000000e+00  0.0000000000000e+00
   234  2.3300000000000e+00  0.0000000000000e+00  0.0000000000000e+00
   235  2.3400000000000e+00  0.0000000000000e+00  0.0000000000000e+00
   236  2.3500000000000e+00  0.0000000000000e+00  0.0000000000000e+00
   237  2.3600000000000e+00  0.0000000000000e+00  0.0000000000000e+00
   238  2.3700000000000e+00  0.0000000000000e+00  0.0000000000000e+00
   239  2.3800000000000e+00  0.0000000000000e+00  0.0000000000000e+00
   240  2.3900000000000e+00  0.0000000000000e+00  0.0000000000000e+00
   241  2.4000000000000e+00  0.0000000000000e+00  0.0000000000000e+00
   242  2.4100000000000e+00  0.0000000000000e+00  0.0000000000000e+00
   243  2.4200000000000e+00  0.0000000000000e+00  0.0000000000000e+00
   244  2.4300000000000e+00  0.0000000000000e+00  0.0000000000000e+00
   245  2.4400000000000e+00  0.0000000000000e+00  0.0000000000000e+00
   246  2.4500000000000e+00  0.0000000000000e+00  0.0000000000000e+00
   247  2.4600000000000e+00  0.0000000000000e+00  0.0000000000000e+00
   248  2.4700000000000e+00  0.0000000000000e+00  0.0000000000000e+00
   249  2.4800000000000e+00  0.0000000000000e+00  0.0000000000000e+00
   250  2.4900000000000e+00  0.0000000000000e+00  0.0000000000000e+00
   251  2.5000000000000e+00  0.0000000000000e+00  0.0000000000000e+00
   252  2.5100000000000e+00  0.0000000000000e+00  0.0000000000000e+00
   253  2.5200000000000e+00  0.0000000000000e+00  0.0000000000000e+00
   254  2.5300000000000e+00  0.0000000000000e+00  0.0000000000000e+00
   255  2.5400000000000e+00  0.0000000000000e+00  0.0000000000000e+00
   256  2.5500000000000e+00  0.0000000000000e+00  0.0000000000000e+00
   257  2.5600000000000e+00  0.0000000000000e+00  0.0000000000000e+00
   258  2.5700000000000e+00  0.0000000000000e+00  0.0000000000000e+00
   259  2.5800000000000e+00  0.0000000000000e+00  0.0000000000000e+00
   260  2.5900000000000e+00  0.0000000000000e+00  0.0000000000000e+00
   261  2.6000000000000e+00  0.0000000000000e+00  0.0000000000000e+00
   262  2.6100000000000e+00  0.0000000000000e+00  0.0000000000000e+00
   263  2.6200000000000e+00  0.0000000000000e+00  0.0000000000000e+00
   264  2.6300000000000e+00  0.0000000000000e+00  0.0000000000000e+00
   265  2.6400000000000e+00  0.0000000000000e+00  0.0000000000000e+00
   266  2.6500000000000e+00  0.0000000000000e+00  0.0000000000000e+00
   267  2.6600000000000e+00  0.0000000000000e+00  0.0000000000000e+00
   268  2.6700000000000e+00  0.0000000000000e+00  0.0000000000000e+00
   269  2.6800000000000e+00  0.0000000000000e+00  0.0000000000000e+00
   270  2.6900000000000e+00  0.0000000000000e+00  0.0000000000000e+00
   271  2.7000000000000e+00  0.0000000000000e+00  0.0000000000000e+00
   272  2.7100000000000e+00  0.0000000000000e+00  0.0000000000000e+00
   273  2.7200000000000e+00  0.0000000000000e+00  0.0000000000000e+00
   274  2.7300000000000e+00  0.0000000000000e+00  0.0000000000000e+00
   275  2.7400000000000e+00  0.0000000000000e+00  0.0000000000000e+00
   276  2.7500000000000e+00  0.0000000000000e+00  0.0000000000000e+00
   277  2.7600000000000e+00  0.0000000000000e+00  0.0000000000000e+00
   278  2.7700000000000e+00  0.0000000000000e+00  0.0000000000000e+00
   279  2.7800000000000e+00  0.0000000000000e+00  0.0000000000000e+00
   280  2.7900000000000e+00  0.0000000000000e+00  0.0000000000000e+00
   281  2.8000000000000e+00  0.0000000000000e+00  0.0000000000000e+00
   282  2.8100000000000e+00  0.0000000000000e+00  0.0000000000000e+00
   283  2.8200000000000e+00  0.0000000000000e+00  0.0000000000000e+00
   284  2.8300000000000e+00  0.0000000000000e+00  0.0000000000000e+00
   285  2.8400000000000e+00  0.0000000000000e+00  0.0000000000000e+00
   286  2.8500000000000e+00  0.0000000000000e+00  0.0000000000000e+00
   287  2.8600000000000e+00  0.0000000000000e+00  0.0000000000000e+00
   288  2.8700000000000e+00  0.0000000000000e+00  0.0000000000000e+00
   289  2.8800000000000e+00  0.0000000000000e+00  0.0000000000000e+00
   290  2.8900000000000e+00  0.0000000000000e+00  0.0000000000000e+00
   291  2.9000000000000e+00  0.0000000000000e+00  0.0000000000000e+00
   292  2.9100000000000e+00  0.0000000000000e+00  0.0000000000000e+00
   293  2.9200000000000e+00  0.0000000000000e+00  0.0000000000000e+00
   294  2.9300000000000e+00  0.0000000000000e+00  0.0000000000000e+00
   295  2.9400000000000e+00  0.0000000000000e+00  0.0000000000000e+00
   296  2.9500000000000e+00  0.0000000000000e+00  0.0000000000000e+00
   297  2.9600000000000e+00  0.0000000000000e+00  0.0000000000000e+00
   298  2.9700000000000e+00  0.0000000000000e+00  0.0000000000000e+00
   299  2.9800000000000e+00  0.0000000000000e+00  0.0000000000000e+00
   300  2.9900000000000e+00  0.0000000000000e+00  0.0000000000000e+00
   301  3.0000000000000e+00  0.0000000000000e+00  0.0000000000000e+00
   302  3.0100000000000e+00  0.0000000000000e+00  0.0000000000000e+00
   303  3.0200000000000e+00  0.0000000000000e+00  0.0000000000000e+00
   304  3.0300000000000e+00  0.0000000000000e+00  0.0000000000000e+00
   305  3.0400000000000e+00  0.0000000000000e+00  0.0000000000000e+00
   306  3.0500000000000e+00  0.0000000000000e+00  0.0000000000000e+00
   307  3.0600000000000e+00  0.0000000000000e+00  0.0000000000000e+00
   308  3.0700000000000e+00  0.0000000000000e+00  0.0000000000000e+00
   309  3.0800000000000e+00  0.0000000000000e+00  0.0000000000000e+00
   310  3.0900000000000e+00  0.0000000000000e+00  0.0000000000000e+00
   311  3.1000000000000e+00  0.0000000000000e+00  0.0000000000000e+00
   312  3.1100000000000e+00  0.0000000000000e+00  0.0000000000000e+00
   313  3.1200000000000e+00  0.0000000000000e+00  0.0000000000000e+00
   314  3.1300000000000e+00  0.0000000000000e+00  0.0000000000000e+00
   315  3.1400000000000e+00  0.0000000000000e+00  0.0000000000000e+00
   316  3.1500000000000e+00  0.0000000000000e+00  0.0000000000000e+00
   317  3.1600000000000e+00  0.0000000000000e+00  0.0000000000000e+00
   318  3.1700000000000e+00  0.0000000000000e+00  0.0000000000000e+00
   319  3.1800000000000e+00  0.0000000000000e+00  0.0000000000000e+00
   320  3.1900000000000e+00  0.0000000000000e+00  0.0000000000000e+00
   321  3.2000000000000e+00  0.0000000000000e+00  0.0000000000000e+00
   322  3.2100000000000e+00  0.0000000000000e+00  0.0000000000000e+00
   323  3.2200000000000e+00  0.0000000000000e+00  0.0000000000000e+00
   324  3.2300000000000e+00  0.0000000000000e+00  0.0000000000000e+00
   325  3.2400000000000e+00  0.0000000000000e+00  0.0000000000000e+00
   326  3.2500000000000e+00  0.0000000000000e+00  0.0000000000000e+00
   327  3.2600000000000e+00  0.0000000000000e+00  0.0000000000000e+00
   328  3.2700000000000e+00  0.0000000000000e+00  0.0000000000000e+00
   329  3.2800000000000e+00  0.0000000000000e+00  0.0000000000000e+00
   330  3.2900000000000e+00  0.0000000000000e+00  0.0000000000000e+00
   331  3.3000000000000e+00  0.0000000000000e+00  0.0000000000000e+00
   332  3.3100000000000e+00  0.0000000000000e+00  0.0000000000000e+00
   333  3.3200000000000e+00  0.0000000000000e+00  0.0000000000000e+00
   334  3.3300000000000e+00  0.0000000000000e+00  0.0000000000000e+00
   335  3.3400000000000e+00  0.0000000000000e+00  0.0000000000000e+00
   336  3.3500000000000e+00  0.0000000000000e+00  0.0000000000000e+00
   337  3.3600000000000e+00  0.0000000000000e+00  0.0000000000000e+00
   338  3.3700000000000e+00  0.0000000000000e+00  0.0000000000000e+00
   339  3.3800000000000e+00  0.0000000000000e+00  0.0000000000000e+00
   340  3.3900000000000e+00  0.0000000000000e+00  0.0000000000000e+00
   341  3.4000000000000e+00  0.0000000000000e+00  0.0000000000000e+00
   342  3.4100000000000e+00  0.0000000000000e+00  0.0000000000000e+00
   343  3.4200000000000e+00  0.0000000000000e+00  0.0000000000000e+00
   344  3.4300000000000e+00  0.0000000000000e+00  0.0000000000000e+00
   345  3.4400000000000e+00  0.0000000000000e+00  0.0000000000000e+00
   346  3.4500000000000e+00  0.0000000000000e+00  0.0000000000000e+00
   347  3.4600000000000e+00  0.0000000000000e+00  0.0000000000000e+00
   348  3.4700000000000e+00  0.0000000000000e+00  0.0000000000000e+00
   349  3.4800000000000e+00  0.0000000000000e+00  0.0000000000000e+00
   350  3.4900000000000e+00  0.0000000000000e+00  0.0000000000000e+00
   351  3.5000000000000e+00  0.0000000000000e+00  0.0000000000000e+00
   352  3.5100000000000e+00  0.0000000000000e+00  0.0000000000000e+00
   353  3.5200000000000e+00  0.0000000000000e+00  0.0000000000000e+00
   354  3.5300000000000e+00  0.0000000000000e+00  0.0000000000000e+00
   355  3.5400000000000e+00  0.0000000000000e+00  0.0000000000000e+00
   356  3.5500000000000e+00  0.0000000000000e+00  0.0000000000000e+00
   357  3.5600000000000e+00  0.0000000000000e+00  0.0000000000000e+00
   358  3.5700000000000e+00  0.0000000000000e+00  0.0000000000000e+00
   359  3.5800000000000e+00  0.0000000000000e+00  0.0000000000000e+00
   360  3.5900000000000e+00  0.0000000000000e+00  0.0000000000000e+00
   361  3.6000000000000e+00  0.0000000000000e+00  0.0000000000000e+00
   362  3.6100000000000e+00  0.0000000000000e+00  0.0000000000000e+00
   363  3.6200000000000e+00  0.0000000000000e+00  0.0000000000000e+00
   364  3.6300000000000e+00  0.0000000000000e+00  0.0000000000000e+00
   365  3.6400000000000e+00  0.0000000000000e+00  0.0000000000000e+00
   366  3.6500000000000e+00  0.0000000000000e+00  0.0000000000000e+00
   367  3.6600000000000e+00  0.0000000000000e+00  0.0000000000000e+00
   368  3.6700000000000e+00  0.0000000000000e+00  0.0000000000000e+00
   369  3.6800000000000e+00  0.0000000000000e+00  0.0000000000000e+00
   370  3.6900000000000e+00  0.0000000000000e+00  0.0000000000000e+00
   371  3.7000000000000e+00  0.0000000000000e+00  0.0000000000000e+00
   372  3.7100000000000e+00  0.0000000000000e+00  0.0000000000000e+00
   373  3.7200000000000e+00  0.0000000000000e+00  0.0000000000000e+00
   374  3.7300000000000e+00  0.0000000000000e+00  0.0000000000000e+00
   375  3.7400000000000e+00  0.0000000000000e+00  0.0000000000000e+00
   376  3.7500000000000e+00  0.0000000000000e+00  0.0000000000000e+00
   377  3.7600000000000e+00  0.0000000000000e+00  0.0000000000000e+00
   378  3.7700000000000e+00  0.0000000000000e+00  0.0000000000000e+00
   379  3.7800000000000e+00  0.0000000000000e+00  0.0000000000000e+00
   380  3.7900000000000e+00  0.0000000000000e+00  0.0000000000000e+00
   381  3.8000000000000e+00  0.0000000000000e+00  0.0000000000000e+00
   382  3.8100000000000e+00  0.0000000000000e+00  0.0000000000000e+00
   383  3.8200000000000e+00  0.0000000000000e+00  0.0000000000000e+00
   384  3.8300000000000e+00  0.0000000000000e+00  0.0000000000000e+00
   385  3.8400000000000e+00  0.0000000000000e+00  0.0000000000000e+00
   386  3.8500000000000e+00  0.0000000000000e+00  0.0000000000000e+00
   387  3.8600000000000e+00  0.0000000000000e+00  0.0000000000000e+00
   388  3.8700000000000e+00  0.0000000000000e+00  0.0000000000000e+00
   389  3.8800000000000e+00  0.0000000000000e+00  0.0000000000000e+00
   390  3.8900000000000e+00  0.0000000000000e+00  0.0000000000000e+00
   391  3.9000000000000e+00  0.0000000000000e+00  0.0000000000000e+00
   392  3.9100000000000e+00  0.0000000000000e+00  0.0000000000000e+00
   393  3.9200000000000e+00  0.0000000000000e+00  0.0000000000000e+00
   394  3.9300000000000e+00  0.0000000000000e+00  0.0000000000000e+00
   395  3.9400000000000e+00  0.0000000000000e+00  0.0000000000000e+00
   396  3.9500000000000e+00  0.0000000000000e+00  0.0000000000000e+00
   397  3.9600000000000e+00  0.0000000000000e+00  0.0000000000000e+00
   398  3.9700000000000e+00  0.0000000000000e+00  0.0000000000000e+00
   399  3.9800000000000e+00  0.0000000000000e+00  0.0000000000000e+00
   400  3.9900000000000e+00  0.0000000000000e+00  0.0000000000000e+00
   401  4.0000000000000e+00  0.0000000000000e+00  0.0000000000000e+00
   402  4.0100000000000e+00  0.0000000000000e+00  0.0000000000000e+00
   403  4.0200000000000e+00  0.0000000000000e+00  0.0000000000000e+00
   404  4.0300000000000e+00  0.0000000000000e+00  0.0000000000000e+00
   405  4.0400000000000e+00  0.0000000000000e+00  0.0000000000000e+00
   406  4.0500000000000e+00  0.0000000000000e+00  0.0000000000000e+00
   407  4.0600000000000e+00  0.0000000000000e+00  0.0000000000000e+00
   408  4.0700000000000e+00  0.0000000000000e+00  0.0000000000000e+00
   409  4.0800000000000e+00  0.0000000000000e+00  0.0000000000000e+00
   410  4.0900000000000e+00  0.0000000000000e+00  0.0000000000000e+00
   411  4.1000000000000e+00  0.0000000000000e+00  0.0000000000000e+00
   412  4.1100000000000e+00  0.0000000000000e+00  0.0000000000000e+00
   413  4.1200000000000e+00  0.0000000000000e+00  0.0000000000000e+00
   414  4.1300000000000e+00  0.0000000000000e+00  0.0000000000000e+00
   415  4.1400000000000e+00  0.0000000000000e+00  0.0000000000000e+00
   416  4.1500000000000e+00  0.0000000000000e+00  0.0000000000000e+00
   417  4.1600000000000e+00  0.0000000000000e+00  0.0000000000000e+00
   418  4.1700000000000e+00  0.0000000000000e+00  0.0000000000000e+00
   419  4.1800000000000e+00  0.0000000000000e+00  0.0000000000000e+00
   420  4.1900000000000e+00  0.0000000000000e+00  0.0000000000000e+00
   421  4.2000000000000e+00  0.0000000000000e+00  0.0000000000000e+00
   422  4.2100000000000e+00  0.0000000000000e+00  0.0000000000000e+00
   423  4.2200000000000e+00  0.0000000000000e+00  0.0000000000000e+00