Ni    ONCVPSP-3.2.3.1  r_core=   1.26116   1.35474   1.65929
28.0000     18.0000      170504    zatom,zion,pspd
8      11   2     4   600     0    pspcod,pspxc,lmax,lloc,mmax,r2well
5.99000000  3.00000000  0.00000000    rchrg fchrg qchrg
2     2     2     0     0    nproj
1     1           extension_switch
0                         6.2545347899867E+00 -2.5174736548607E-01
1  0.0000000000000E+00 -1.3634405826579E-09 -1.2037547403310E-08
2  1.0000000000000E-02  1.0435590005618E-01  5.7844836821305E-02
3  2.0000000000000E-02  2.0831601089357E-01  1.1509529037470E-01
4  3.0000000000000E-02  3.1148683435155E-01  1.7116619519137E-01
5  4.0000000000000E-02  4.1347943132582E-01  2.2549065515861E-01
6  5.0000000000000E-02  5.1391164400363E-01  2.7752876574991E-01
7  6.0000000000000E-02  6.1241025034005E-01  3.2677585009856E-01
8  7.0000000000000E-02  7.0861302982448E-01  3.7277006131854E-01
9  8.0000000000000E-02  8.0217072094973E-01  4.1509921551424E-01
10  9.0000000000000E-02  8.9274885245341E-01  4.5340673453233E-01
11  1.0000000000000E-01  9.8002943232226E-01  4.8739659441861E-01
12  1.1000000000000E-01  1.0637124807005E+00  5.1683719442753E-01
13  1.2000000000000E-01  1.1435173951833E+00  5.4156408193262E-01
14  1.3000000000000E-01  1.2191841394637E+00  5.6148149031192E-01
15  1.4000000000000E-01  1.2904742488950E+00  5.7656266941833E-01
16  1.5000000000000E-01  1.3571716491733E+00  5.8684901116035E-01
17  1.6000000000000E-01  1.4190832870062E+00  5.9244799557360E-01
18  1.7000000000000E-01  1.4760395742472E+00  5.9353000512107E-01
19  1.8000000000000E-01  1.5278946495084E+00  5.9032407638743E-01
20  1.9000000000000E-01  1.5745264636682E+00  5.8311267841750E-01
21  2.0000000000000E-01  1.6158366979153E+00  5.7222562530297E-01
22  2.1000000000000E-01  1.6517505249952E+00  5.5803324688368E-01
23  2.2000000000000E-01  1.6822162260913E+00  5.4093895528697E-01
24  2.3000000000000E-01  1.7072046772753E+00  5.2137135620256E-01
25  2.4000000000000E-01  1.7267087206543E+00  4.9977606206211E-01
26  2.5000000000000E-01  1.7407424362248E+00  4.7660736949150E-01
27  2.6000000000000E-01  1.7493403309867E+00  4.5231996542165E-01
28  2.7000000000000E-01  1.7525564620870E+00  4.2736082503300E-01
29  2.8000000000000E-01  1.7504635106336E+00  4.0216146027870E-01
30  2.9000000000000E-01  1.7431518223698E+00  3.7713067016452E-01
31  3.0000000000000E-01  1.7307284306327E+00  3.5264793338850E-01
32  3.1000000000000E-01  1.7133160759547E+00  3.2905757056307E-01
33  3.2000000000000E-01  1.6910522353410E+00  3.0666378730247E-01
34  3.3000000000000E-01  1.6640881726858E+00  2.8572669126470E-01
35  3.4000000000000E-01  1.6325880200262E+00  2.6645935613567E-01
36  3.5000000000000E-01  1.5967278973994E+00  2.4902598392210E-01
37  3.6000000000000E-01  1.5566950770303E+00  2.3354119419698E-01
38  3.7000000000000E-01  1.5126871954524E+00  2.2007044556370E-01
39  3.8000000000000E-01  1.4649115150327E+00  2.0863157102723E-01
40  3.9000000000000E-01  1.4135842342491E+00  1.9919738565508E-01
41  4.0000000000000E-01  1.3589298440294E+00  1.9169930233905E-01
42  4.1000000000000E-01  1.3011805255357E+00  1.8603187008635E-01
43  4.2000000000000E-01  1.2405755830142E+00  1.8205812951150E-01
44  4.3000000000000E-01  1.1773609037750E+00  1.7961566247389E-01
45  4.4000000000000E-01  1.1117884360479E+00  1.7852319748288E-01
46  4.5000000000000E-01  1.0441156744158E+00  1.7858761989491E-01
47  4.6000000000000E-01  9.7460514178397E-01  1.7961122633777E-01
48  4.7000000000000E-01  9.0352385641712E-01  1.8139905643000E-01
49  4.8000000000000E-01  8.3114277248705E-01  1.8376613187869E-01
50  4.9000000000000E-01  7.5773618282261E-01  1.8654443353033E-01
51  5.0000000000000E-01  6.8358107314517E-01  1.8958945094426E-01
52  5.1000000000000E-01  6.0895641799516E-01  1.9278614650418E-01
53  5.2000000000000E-01  5.3414240979714E-01  1.9605418688330E-01
54  5.3000000000000E-01  4.5941961404836E-01  1.9935230864642E-01
55  5.4000000000000E-01  3.8506804541929E-01  2.0268170164775E-01
56  5.5000000000000E-01  3.1136616159271E-01  2.0608831340013E-01
57  5.6000000000000E-01  2.3858977389774E-01  2.0966399936057E-01
58  5.7000000000000E-01  1.6701087616788E-01  2.1354646766441E-01
59  5.8000000000000E-01  9.6896395731407E-02  2.1791799191536E-01
60  5.9000000000000E-01  2.8506872952368E-02  2.2300289149005E-01
61  6.0000000000000E-01 -3.7904921741873E-02  2.2906380525882E-01
62  6.1000000000000E-01 -1.0209542197630E-01  2.3639681075890E-01
63  6.2000000000000E-01 -1.6383173698777E-01  2.4532546652423E-01
64  6.3000000000000E-01 -2.2289314478437E-01  2.5619387968152E-01
65  6.4000000000000E-01 -2.7907258914224E-01  2.6935892366115E-01
66  6.5000000000000E-01 -3.3217816102719E-01  2.8518175156606E-01
67  6.6000000000000E-01 -3.8203454370839E-01  3.0401876871222E-01
68  6.7000000000000E-01 -4.2848439986149E-01  3.2621224293527E-01
69  6.8000000000000E-01 -4.7138967838092E-01  3.5208074299294E-01
70  6.9000000000000E-01 -5.1063281846316E-01  3.8190960347463E-01
71  7.0000000000000E-01 -5.4611782878999E-01  4.1594161891933E-01
72  7.1000000000000E-01 -5.7777122035845E-01  4.5436817014743E-01
73  7.2000000000000E-01 -6.0554277265977E-01  4.9732098205465E-01
74  7.3000000000000E-01 -6.2940611450029E-01  5.4486470434681E-01
75  7.4000000000000E-01 -6.4935910277285E-01  5.9699049492410E-01
76  7.5000000000000E-01 -6.6542398487440E-01  6.5361077021225E-01
77  7.6000000000000E-01 -6.7764733324445E-01  7.1455526756419E-01
78  7.7000000000000E-01 -6.8609974356238E-01  7.7956854267641E-01
79  7.8000000000000E-01 -6.9087529149149E-01  8.4830899982652E-01
80  7.9000000000000E-01 -6.9209074641390E-01  9.2034952524395E-01
81  8.0000000000000E-01 -6.8988454431014E-01  9.9517976453022E-01
82  8.1000000000000E-01 -6.8441552573384E-01  1.0722100542937E+00
83  8.2000000000000E-01 -6.7586144864796E-01  1.1507769866314E+00
84  8.3000000000000E-01 -6.6441728965394E-01  1.2301505533752E+00
85  8.4000000000000E-01 -6.5029335078957E-01  1.3095427857325E+00
86  8.5000000000000E-01 -6.3371319252399E-01  1.3881177746992E+00
87  8.6000000000000E-01 -6.1491141677293E-01  1.4650029290083E+00
88  8.7000000000000E-01 -5.9413132662907E-01  1.5393013009728E+00
89  8.8000000000000E-01 -5.7162249199169E-01  1.6101047869239E+00
90  8.9000000000000E-01 -5.4763825233381E-01  1.6765079885414E+00
91  9.0000000000000E-01 -5.2243318941652E-01  1.7376225046389E+00
92  9.1000000000000E-01 -4.9626060381163E-01  1.7925914103018E+00
93  9.2000000000000E-01 -4.6937002959465E-01  1.8406036719603E+00
94  9.3000000000000E-01 -4.4200482150207E-01  1.8809082432407E+00
95  9.4000000000000E-01 -4.1439984819877E-01  1.9128275874206E+00
96  9.5000000000000E-01 -3.8677932407499E-01  1.9357703780457E+00
97  9.6000000000000E-01 -3.5935481019888E-01  1.9492431397243E+00
98  9.7000000000000E-01 -3.3232341271243E-01  1.9528606061532E+00
99  9.8000000000000E-01 -3.0586620411891E-01  1.9463545917413E+00
100  9.9000000000000E-01 -2.8014688950971E-01  1.9295811972479E+00
101  1.0000000000000E+00 -2.5531073623064E-01  1.9025261955372E+00
102  1.0100000000000E+00 -2.3148378114396E-01  1.8653084756808E+00
103  1.0200000000000E+00 -2.0877232541906E-01  1.8181814554115E+00
104  1.0300000000000E+00 -1.8726272210957E-01  1.7615324074930E+00
105  1.0400000000000E+00 -1.6702145705913E-01  1.6958796818562E+00
106  1.0500000000000E+00 -1.4809551869255E-01  1.6218678441014E+00
107  1.0600000000000E+00 -1.3051304788170E-01  1.5402607851348E+00
108  1.0700000000000E+00 -1.1428425388225E-01  1.4519328976716E+00
109  1.0800000000000E+00 -9.9402578165288E-02  1.3578584485261E+00
110  1.0900000000000E+00 -8.5846083692719E-02  1.2590993097725E+00
111  1.1000000000000E+00 -7.3579043120846E-02  1.1567912446463E+00
112  1.1100000000000E+00 -6.2553696511516E-02  1.0521289675605E+00
113  1.1200000000000E+00 -5.2712145376915E-02  9.4635022831993E-01
114  1.1300000000000E+00 -4.3988348036252E-02  8.4071918596156E-01
115  1.1400000000000E+00 -3.6310179186743E-02  7.3650935510430E-01
116  1.1500000000000E+00 -2.9601515497411E-02  6.3498641705035E-01
117  1.1600000000000E+00 -2.3784308166785E-02  5.3739119586472E-01
118  1.1700000000000E+00 -1.8780602649087E-02  4.4492311193179E-01
119  1.1800000000000E+00 -1.4514467172003E-02  3.5872440565416E-01
120  1.1900000000000E+00 -1.0913837782417E-02  2.7986485529457E-01
121  1.2000000000000E+00 -7.9120516269312E-03  2.0932975676423E-01
122  1.2100000000000E+00 -5.4494052230874E-03  1.4800661781829E-01
123  1.2200000000000E+00 -3.4761610242967E-03  9.6674966109263E-02
124  1.2300000000000E+00 -1.9525791823128E-03  5.5907378306974E-02
125  1.2400000000000E+00 -8.4960177207797E-04  2.5984435435641E-02
126  1.2500000000000E+00 -1.7964833616066E-04  8.1134078891462E-03
127  1.2600000000000E+00  8.4191283915001E-05  9.9492091186232E-04
128  1.2700000000000E+00  5.8586544897896E-05 -2.6516796589619E-04
129  1.2800000000000E+00 -1.4068797247444E-05  9.7867237916713E-05
130  1.2900000000000E+00 -4.6713982780512E-06  3.8284659865495E-05
131  1.3000000000000E+00  3.4767684265696E-06 -2.0218729507534E-05
132  1.3100000000000E+00 -1.6069498306463E-07 -1.1213934714082E-06
133  1.3200000000000E+00 -1.3275919602670E-07 -9.2644644440372E-07
134  1.3300000000000E+00  0.0000000000000E+00  0.0000000000000E+00
135  1.3400000000000E+00  0.0000000000000E+00  0.0000000000000E+00
136  1.3500000000000E+00  0.0000000000000E+00  0.0000000000000E+00
137  1.3600000000000E+00  0.0000000000000E+00  0.0000000000000E+00
138  1.3700000000000E+00  0.0000000000000E+00  0.0000000000000E+00
139  1.3800000000000E+00  0.0000000000000E+00  0.0000000000000E+00
140  1.3900000000000E+00  0.0000000000000E+00  0.0000000000000E+00
141  1.4000000000000E+00  0.0000000000000E+00  0.0000000000000E+00
142  1.4100000000000E+00  0.0000000000000E+00  0.0000000000000E+00
143  1.4200000000000E+00  0.0000000000000E+00  0.0000000000000E+00
144  1.4300000000000E+00  0.0000000000000E+00  0.0000000000000E+00
145  1.4400000000000E+00  0.0000000000000E+00  0.0000000000000E+00
146  1.4500000000000E+00  0.0000000000000E+00  0.0000000000000E+00
147  1.4600000000000E+00  0.0000000000000E+00  0.0000000000000E+00
148  1.4700000000000E+00  0.0000000000000E+00  0.0000000000000E+00
149  1.4800000000000E+00  0.0000000000000E+00  0.0000000000000E+00
150  1.4900000000000E+00  0.0000000000000E+00  0.0000000000000E+00
151  1.5000000000000E+00  0.0000000000000E+00  0.0000000000000E+00
152  1.5100000000000E+00  0.0000000000000E+00  0.0000000000000E+00
153  1.5200000000000E+00  0.0000000000000E+00  0.0000000000000E+00
154  1.5300000000000E+00  0.0000000000000E+00  0.0000000000000E+00
155  1.5400000000000E+00  0.0000000000000E+00  0.0000000000000E+00
156  1.5500000000000E+00  0.0000000000000E+00  0.0000000000000E+00
157  1.5600000000000E+00  0.0000000000000E+00  0.0000000000000E+00
158  1.5700000000000E+00  0.0000000000000E+00  0.0000000000000E+00
159  1.5800000000000E+00  0.0000000000000E+00  0.0000000000000E+00
160  1.5900000000000E+00  0.0000000000000E+00  0.0000000000000E+00
161  1.6000000000000E+00  0.0000000000000E+00  0.0000000000000E+00
162  1.6100000000000E+00  0.0000000000000E+00  0.0000000000000E+00
163  1.6200000000000E+00  0.0000000000000E+00  0.0000000000000E+00
164  1.6300000000000E+00  0.0000000000000E+00  0.0000000000000E+00
165  1.6400000000000E+00  0.0000000000000E+00  0.0000000000000E+00
166  1.6500000000000E+00  0.0000000000000E+00  0.0000000000000E+00
167  1.6600000000000E+00  0.0000000000000E+00  0.0000000000000E+00
168  1.6700000000000E+00  0.0000000000000E+00  0.0000000000000E+00
169  1.6800000000000E+00  0.0000000000000E+00  0.0000000000000E+00
170  1.6900000000000E+00  0.0000000000000E+00  0.0000000000000E+00
171  1.7000000000000E+00  0.0000000000000E+00  0.0000000000000E+00
172  1.7100000000000E+00  0.0000000000000E+00  0.0000000000000E+00
173  1.7200000000000E+00  0.0000000000000E+00  0.0000000000000E+00
174  1.7300000000000E+00  0.0000000000000E+00  0.0000000000000E+00
175  1.7400000000000E+00  0.0000000000000E+00  0.0000000000000E+00
176  1.7500000000000E+00  0.0000000000000E+00  0.0000000000000E+00
177  1.7600000000000E+00  0.0000000000000E+00  0.0000000000000E+00
178  1.7700000000000E+00  0.0000000000000E+00  0.0000000000000E+00
179  1.7800000000000E+00  0.0000000000000E+00  0.0000000000000E+00
180  1.7900000000000E+00  0.0000000000000E+00  0.0000000000000E+00
181  1.8000000000000E+00  0.0000000000000E+00  0.0000000000000E+00
182  1.8100000000000E+00  0.0000000000000E+00  0.0000000000000E+00
183  1.8200000000000E+00  0.0000000000000E+00  0.0000000000000E+00
184  1.8300000000000E+00  0.0000000000000E+00  0.0000000000000E+00
185  1.8400000000000E+00  0.0000000000000E+00  0.0000000000000E+00
186  1.8500000000000E+00  0.0000000000000E+00  0.0000000000000E+00
187  1.8600000000000E+00  0.0000000000000E+00  0.0000000000000E+00
188  1.8700000000000E+00  0.0000000000000E+00  0.0000000000000E+00
189  1.8800000000000E+00  0.0000000000000E+00  0.0000000000000E+00
190  1.8900000000000E+00  0.0000000000000E+00  0.0000000000000E+00
191  1.9000000000000E+00  0.0000000000000E+00  0.0000000000000E+00
192  1.9100000000000E+00  0.0000000000000E+00  0.0000000000000E+00
193  1.9200000000000E+00  0.0000000000000E+00  0.0000000000000E+00
194  1.9300000000000E+00  0.0000000000000E+00  0.0000000000000E+00
195  1.9400000000000E+00  0.0000000000000E+00  0.0000000000000E+00
196  1.9500000000000E+00  0.0000000000000E+00  0.0000000000000E+00
197  1.9600000000000E+00  0.0000000000000E+00  0.0000000000000E+00
198  1.9700000000000E+00  0.0000000000000E+00  0.0000000000000E+00
199  1.9800000000000E+00  0.0000000000000E+00  0.0000000000000E+00
200  1.9900000000000E+00  0.0000000000000E+00  0.0000000000000E+00
201  2.0000000000000E+00  0.0000000000000E+00  0.0000000000000E+00
202  2.0100000000000E+00  0.0000000000000E+00  0.0000000000000E+00
203  2.0200000000000E+00  0.0000000000000E+00  0.0000000000000E+00
204  2.0300000000000E+00  0.0000000000000E+00  0.0000000000000E+00
205  2.0400000000000E+00  0.0000000000000E+00  0.0000000000000E+00
206  2.0500000000000E+00  0.0000000000000E+00  0.0000000000000E+00
207  2.0600000000000E+00  0.0000000000000E+00  0.0000000000000E+00
208  2.0700000000000E+00  0.0000000000000E+00  0.0000000000000E+00
209  2.0800000000000E+00  0.0000000000000E+00  0.0000000000000E+00
210  2.0900000000000E+00  0.0000000000000E+00  0.0000000000000E+00
211  2.1000000000000E+00  0.0000000000000E+00  0.0000000000000E+00
212  2.1100000000000E+00  0.0000000000000E+00  0.0000000000000E+00
213  2.1200000000000E+00  0.0000000000000E+00  0.0000000000000E+00
214  2.1300000000000E+00  0.0000000000000E+00  0.0000000000000E+00
215  2.1400000000000E+00  0.0000000000000E+00  0.0000000000000E+00
216  2.1500000000000E+00  0.0000000000000E+00  0.0000000000000E+00
217  2.1600000000000E+00  0.0000000000000E+00  0.0000000000000E+00
218  2.1700000000000E+00  0.0000000000000E+00  0.0000000000000E+00
219  2.1800000000000E+00  0.0000000000000E+00  0.0000000000000E+00
220  2.1900000000000E+00  0.0000000000000E+00  0.0000000000000E+00
221  2.2000000000000E+00  0.0000000000000E+00  0.0000000000000E+00
222  2.2100000000000E+00  0.0000000000000E+00  0.0000000000000E+00
223  2.2200000000000E+00  0.0000000000000E+00  0.0000000000000E+00
224  2.2300000000000E+00  0.0000000000000E+00  0.0000000000000E+00
225  2.2400000000000E+00  0.0000000000000E+00  0.0000000000000E+00
226  2.2500000000000E+00  0.0000000000000E+00  0.0000000000000E+00
227  2.2600000000000E+00  0.0000000000000E+00  0.0000000000000E+00
228  2.2700000000000E+00  0.0000000000000E+00  0.0000000000000E+00
229  2.2800000000000E+00  0.0000000000000E+00  0.0000000000000E+00
230  2.2900000000000E+00  0.0000000000000E+00  0.0000000000000E+00
231  2.3000000000000E+00  0.0000000000000E+00  0.0000000000000E+00
232  2.3100000000000E+00  0.0000000000000E+00  0.0000000000000E+00
233  2.3200000000000E+00  0.0000000000000E+00  0.0000000000000E+00
234  2.3300000000000E+00  0.0000000000000E+00  0.0000000000000E+00
235  2.3400000000000E+00  0.0000000000000E+00  0.0000000000000E+00
236  2.3500000000000E+00  0.0000000000000E+00  0.0000000000000E+00
237  2.3600000000000E+00  0.0000000000000E+00  0.0000000000000E+00
238  2.3700000000000E+00  0.0000000000000E+00  0.0000000000000E+00
239  2.3800000000000E+00  0.0000000000000E+00  0.0000000000000E+00
240  2.3900000000000E+00  0.0000000000000E+00  0.0000000000000E+00
241  2.4000000000000E+00  0.0000000000000E+00  0.0000000000000E+00
242  2.4100000000000E+00  0.0000000000000E+00  0.0000000000000E+00
243  2.4200000000000E+00  0.0000000000000E+00  0.0000000000000E+00
244  2.4300000000000E+00  0.0000000000000E+00  0.0000000000000E+00
245  2.4400000000000E+00  0.0000000000000E+00  0.0000000000000E+00
246  2.4500000000000E+00  0.0000000000000E+00  0.0000000000000E+00
247  2.4600000000000E+00  0.0000000000000E+00  0.0000000000000E+00
248  2.4700000000000E+00  0.0000000000000E+00  0.0000000000000E+00
249  2.4800000000000E+00  0.0000000000000E+00  0.0000000000000E+00
250  2.4900000000000E+00  0.0000000000000E+00  0.0000000000000E+00
251  2.5000000000000E+00  0.0000000000000E+00  0.0000000000000E+00
252  2.5100000000000E+00  0.0000000000000E+00  0.0000000000000E+00
253  2.5200000000000E+00  0.0000000000000E+00  0.0000000000000E+00
254  2.5300000000000E+00  0.0000000000000E+00  0.0000000000000E+00
255  2.5400000000000E+00  0.0000000000000E+00  0.0000000000000E+00
256  2.5500000000000E+00  0.0000000000000E+00  0.0000000000000E+00
257  2.5600000000000E+00  0.0000000000000E+00  0.0000000000000E+00
258  2.5700000000000E+00  0.0000000000000E+00  0.0000000000000E+00
259  2.5800000000000E+00  0.0000000000000E+00  0.0000000000000E+00
260  2.5900000000000E+00  0.0000000000000E+00  0.0000000000000E+00
261  2.6000000000000E+00  0.0000000000000E+00  0.0000000000000E+00
262  2.6100000000000E+00  0.0000000000000E+00  0.0000000000000E+00
263  2.6200000000000E+00  0.0000000000000E+00  0.0000000000000E+00
264  2.6300000000000E+00  0.0000000000000E+00  0.0000000000000E+00
265  2.6400000000000E+00  0.0000000000000E+00  0.0000000000000E+00
266  2.6500000000000E+00  0.0000000000000E+00  0.0000000000000E+00
267  2.6600000000000E+00  0.0000000000000E+00  0.0000000000000E+00
268  2.6700000000000E+00  0.0000000000000E+00  0.0000000000000E+00
269  2.6800000000000E+00  0.0000000000000E+00  0.0000000000000E+00
270  2.6900000000000E+00  0.0000000000000E+00  0.0000000000000E+00
271  2.7000000000000E+00  0.0000000000000E+00  0.0000000000000E+00
272  2.7100000000000E+00  0.0000000000000E+00  0.0000000000000E+00
273  2.7200000000000E+00  0.0000000000000E+00  0.0000000000000E+00
274  2.7300000000000E+00  0.0000000000000E+00  0.0000000000000E+00
275  2.7400000000000E+00  0.0000000000000E+00  0.0000000000000E+00
276  2.7500000000000E+00  0.0000000000000E+00  0.0000000000000E+00
277  2.7600000000000E+00  0.0000000000000E+00  0.0000000000000E+00
278  2.7700000000000E+00  0.0000000000000E+00  0.0000000000000E+00
279  2.7800000000000E+00  0.0000000000000E+00  0.0000000000000E+00
280  2.7900000000000E+00  0.0000000000000E+00  0.0000000000000E+00
281  2.8000000000000E+00  0.0000000000000E+00  0.0000000000000E+00
282  2.8100000000000E+00  0.0000000000000E+00  0.0000000000000E+00
283  2.8200000000000E+00  0.0000000000000E+00  0.0000000000000E+00
284  2.8300000000000E+00  0.0000000000000E+00  0.0000000000000E+00
285  2.8400000000000E+00  0.0000000000000E+00  0.0000000000000E+00
286  2.8500000000000E+00  0.0000000000000E+00  0.0000000000000E+00
287  2.8600000000000E+00  0.0000000000000E+00  0.0000000000000E+00
288  2.8700000000000E+00  0.0000000000000E+00  0.0000000000000E+00
289  2.8800000000000E+00  0.0000000000000E+00  0.0000000000000E+00
290  2.8900000000000E+00  0.0000000000000E+00  0.0000000000000E+00
291  2.9000000000000E+00  0.0000000000000E+00  0.0000000000000E+00
292  2.9100000000000E+00  0.0000000000000E+00  0.0000000000000E+00
293  2.9200000000000E+00  0.0000000000000E+00  0.0000000000000E+00
294  2.9300000000000E+00  0.0000000000000E+00  0.0000000000000E+00
295  2.9400000000000E+00  0.0000000000000E+00  0.0000000000000E+00
296  2.9500000000000E+00  0.0000000000000E+00  0.0000000000000E+00
297  2.9600000000000E+00  0.0000000000000E+00  0.0000000000000E+00
298  2.9700000000000E+00  0.0000000000000E+00  0.0000000000000E+00
299  2.9800000000000E+00  0.0000000000000E+00  0.0000000000000E+00
300  2.9900000000000E+00  0.0000000000000E+00  0.0000000000000E+00
301  3.0000000000000E+00  0.0000000000000E+00  0.0000000000000E+00
302  3.0100000000000E+00  0.0000000000000E+00  0.0000000000000E+00
303  3.0200000000000E+00  0.0000000000000E+00  0.0000000000000E+00
304  3.0300000000000E+00  0.0000000000000E+00  0.0000000000000E+00
305  3.0400000000000E+00  0.0000000000000E+00  0.0000000000000E+00
306  3.0500000000000E+00  0.0000000000000E+00  0.0000000000000E+00
307  3.0600000000000E+00  0.0000000000000E+00  0.0000000000000E+00
308  3.0700000000000E+00  0.0000000000000E+00  0.0000000000000E+00
309  3.0800000000000E+00  0.0000000000000E+00  0.0000000000000E+00
310  3.0900000000000E+00  0.0000000000000E+00  0.0000000000000E+00
311  3.1000000000000E+00  0.0000000000000E+00  0.0000000000000E+00
312  3.1100000000000E+00  0.0000000000000E+00  0.0000000000000E+00
313  3.1200000000000E+00  0.0000000000000E+00  0.0000000000000E+00
314  3.1300000000000E+00  0.0000000000000E+00  0.0000000000000E+00
315  3.1400000000000E+00  0.0000000000000E+00  0.0000000000000E+00
316  3.1500000000000E+00  0.0000000000000E+00  0.0000000000000E+00
317  3.1600000000000E+00  0.0000000000000E+00  0.0000000000000E+00
318  3.1700000000000E+00  0.0000000000000E+00  0.0000000000000E+00
319  3.1800000000000E+00  0.0000000000000E+00  0.0000000000000E+00
320  3.1900000000000E+00  0.0000000000000E+00  0.0000000000000E+00
321  3.2000000000000E+00  0.0000000000000E+00  0.0000000000000E+00
322  3.2100000000000E+00  0.0000000000000E+00  0.0000000000000E+00
323  3.2200000000000E+00  0.0000000000000E+00  0.0000000000000E+00
324  3.2300000000000E+00  0.0000000000000E+00  0.0000000000000E+00
325  3.2400000000000E+00  0.0000000000000E+00  0.0000000000000E+00
326  3.2500000000000E+00  0.0000000000000E+00  0.0000000000000E+00
327  3.2600000000000E+00  0.0000000000000E+00  0.0000000000000E+00
328  3.2700000000000E+00  0.0000000000000E+00  0.0000000000000E+00
329  3.2800000000000E+00  0.0000000000000E+00  0.0000000000000E+00
330  3.2900000000000E+00  0.0000000000000E+00  0.0000000000000E+00
331  3.3000000000000E+00  0.0000000000000E+00  0.0000000000000E+00
332  3.3100000000000E+00  0.0000000000000E+00  0.0000000000000E+00
333  3.3200000000000E+00  0.0000000000000E+00  0.0000000000000E+00
334  3.3300000000000E+00  0.0000000000000E+00  0.0000000000000E+00
335  3.3400000000000E+00  0.0000000000000E+00  0.0000000000000E+00
336  3.3500000000000E+00  0.0000000000000E+00  0.0000000000000E+00
337  3.3600000000000E+00  0.0000000000000E+00  0.0000000000000E+00
338  3.3700000000000E+00  0.0000000000000E+00  0.0000000000000E+00
339  3.3800000000000E+00  0.0000000000000E+00  0.0000000000000E+00
340  3.3900000000000E+00  0.0000000000000E+00  0.0000000000000E+00
341  3.4000000000000E+00  0.0000000000000E+00  0.0000000000000E+00
342  3.4100000000000E+00  0.0000000000000E+00  0.0000000000000E+00
343  3.4200000000000E+00  0.0000000000000E+00  0.0000000000000E+00
344  3.4300000000000E+00  0.0000000000000E+00  0.0000000000000E+00
345  3.4400000000000E+00  0.0000000000000E+00  0.0000000000000E+00
346  3.4500000000000E+00  0.0000000000000E+00  0.0000000000000E+00
347  3.4600000000000E+00  0.0000000000000E+00  0.0000000000000E+00
348  3.4700000000000E+00  0.0000000000000E+00  0.0000000000000E+00
349  3.4800000000000E+00  0.0000000000000E+00  0.0000000000000E+00
350  3.4900000000000E+00  0.0000000000000E+00  0.0000000000000E+00
351  3.5000000000000E+00  0.0000000000000E+00  0.0000000000000E+00
352  3.5100000000000E+00  0.0000000000000E+00  0.0000000000000E+00
353  3.5200000000000E+00  0.0000000000000E+00  0.0000000000000E+00
354  3.5300000000000E+00  0.0000000000000E+00  0.0000000000000E+00
355  3.5400000000000E+00  0.0000000000000E+00  0.0000000000000E+00
356  3.5500000000000E+00  0.0000000000000E+00  0.0000000000000E+00
357  3.5600000000000E+00  0.0000000000000E+00  0.0000000000000E+00
358  3.5700000000000E+00  0.0000000000000E+00  0.0000000000000E+00
359  3.5800000000000E+00  0.0000000000000E+00  0.0000000000000E+00
360  3.5900000000000E+00  0.0000000000000E+00  0.0000000000000E+00
361  3.6000000000000E+00  0.0000000000000E+00  0.0000000000000E+00
362  3.6100000000000E+00  0.0000000000000E+00  0.0000000000000E+00
363  3.6200000000000E+00  0.0000000000000E+00  0.0000000000000E+00
364  3.6300000000000E+00  0.0000000000000E+00  0.0000000000000E+00
365  3.6400000000000E+00  0.0000000000000E+00  0.0000000000000E+00
366  3.6500000000000E+00  0.0000000000000E+00  0.0000000000000E+00
367  3.6600000000000E+00  0.0000000000000E+00  0.0000000000000E+00
368  3.6700000000000E+00  0.0000000000000E+00  0.0000000000000E+00
369  3.6800000000000E+00  0.0000000000000E+00  0.0000000000000E+00
370  3.6900000000000E+00  0.0000000000000E+00  0.0000000000000E+00
371  3.7000000000000E+00  0.0000000000000E+00  0.0000000000000E+00
372  3.7100000000000E+00  0.0000000000000E+00  0.0000000000000E+00
373  3.7200000000000E+00  0.0000000000000E+00  0.0000000000000E+00
374  3.7300000000000E+00  0.0000000000000E+00  0.0000000000000E+00
375  3.7400000000000E+00  0.0000000000000E+00  0.0000000000000E+00
376  3.7500000000000E+00  0.0000000000000E+00  0.0000000000000E+00
377  3.7600000000000E+00  0.0000000000000E+00  0.0000000000000E+00
378  3.7700000000000E+00  0.0000000000000E+00  0.0000000000000E+00
379  3.7800000000000E+00  0.0000000000000E+00  0.0000000000000E+00
380  3.7900000000000E+00  0.0000000000000E+00  0.0000000000000E+00
381  3.8000000000000E+00  0.0000000000000E+00  0.0000000000000E+00
382  3.8100000000000E+00  0.0000000000000E+00  0.0000000000000E+00
383  3.8200000000000E+00  0.0000000000000E+00  0.0000000000000E+00
384  3.8300000000000E+00  0.0000000000000E+00  0.0000000000000E+00
385  3.8400000000000E+00  0.0000000000000E+00  0.0000000000000E+00
386  3.8500000000000E+00  0.0000000000000E+00  0.0000000000000E+00
387  3.8600000000000E+00  0.0000000000000E+00  0.0000000000000E+00
388  3.8700000000000E+00  0.0000000000000E+00  0.0000000000000E+00
389  3.8800000000000E+00  0.0000000000000E+00  0.0000000000000E+00
390  3.8900000000000E+00  0.0000000000000E+00  0.0000000000000E+00
391  3.9000000000000E+00  0.0000000000000E+00  0.0000000000000E+00
392  3.9100000000000E+00  0.0000000000000E+00  0.0000000000000E+00
393  3.9200000000000E+00  0.0000000000000E+00  0.0000000000000E+00
394  3.9300000000000E+00  0.0000000000000E+00  0.0000000000000E+00
395  3.9400000000000E+00  0.0000000000000E+00  0.0000000000000E+00
396  3.9500000000000E+00  0.0000000000000E+00  0.0000000000000E+00
397  3.9600000000000E+00  0.0000000000000E+00  0.0000000000000E+00
398  3.9700000000000E+00  0.0000000000000E+00  0.0000000000000E+00
399  3.9800000000000E+00  0.0000000000000E+00  0.0000000000000E+00
400  3.9900000000000E+00  0.0000000000000E+00  0.0000000000000E+00
401  4.0000000000000E+00  0.0000000000000E+00  0.0000000000000E+00
402  4.0100000000000E+00  0.0000000000000E+00  0.0000000000000E+00
403  4.0200000000000E+00  0.0000000000000E+00  0.0000000000000E+00
404  4.0300000000000E+00  0.0000000000000E+00  0.0000000000000E+00
405  4.0400000000000E+00  0.0000000000000E+00  0.0000000000000E+00
406  4.0500000000000E+00  0.0000000000000E+00  0.0000000000000E+00
407  4.0600000000000E+00  0.0000000000000E+00  0.0000000000000E+00
408  4.0700000000000E+00  0.0000000000000E+00  0.0000000000000E+00
409  4.0800000000000E+00  0.0000000000000E+00  0.0000000000000E+00
410  4.0900000000000E+00  0.0000000000000E+00  0.0000000000000E+00
411  4.1000000000000E+00  0.0000000000000E+00  0.0000000000000E+00
412  4.1100000000000E+00  0.0000000000000E+00  0.0000000000000E+00
413  4.1200000000000E+00  0.0000000000000E+00  0.0000000000000E+00
414  4.1300000000000E+00  0.0000000000000E+00  0.0000000000000E+00
415  4.1400000000000E+00  0.0000000000000E+00  0.0000000000000E+00
416  4.1500000000000E+00  0.0000000000000E+00  0.0000000000000E+00
417  4.1600000000000E+00  0.0000000000000E+00  0.0000000000000E+00
418  4.1700000000000E+00  0.0000000000000E+00  0.0000000000000E+00
419  4.1800000000000E+00  0.0000000000000E+00  0.0000000000000E+00
420  4.1900000000000E+00  0.0000000000000E+00  0.0000000000000E+00
421  4.2000000000000E+00  0.0000000000000E+00  0.0000000000000E+00
422  4.2100000000000E+00  0.0000000000000E+00  0.0000000000000E+00
423  4.2200000000000E+00  0.0000000000000E+00  0.0000000000000E+00
424  4.2300000000000E+00  0.0000000000000E+00  0.0000000000000E+00
425  4.2400000000000E+00  0.0000000000000E+00  0.0000000000000E+00
426  4.2500000000000E+00  0.0000000000000E+00  0.0000000000000E+00
427  4.2600000000000E+00  0.0000000000000E+00  0.0000000000000E+00
428  4.2700000000000E+00  0.0000000000000E+00  0.0000000000000E+00
429  4.2800000000000E+00  0.0000000000000E+00  0.0000000000000E+00
430  4.2900000000000E+00  0.0000000000000E+00  0.0000000000000E+00
431  4.3000000000000E+00  0.0000000000000E+00  0.0000000000000E+00
432  4.3100000000000E+00  0.0000000000000E+00  0.0000000000000E+00
433  4.3200000000000E+00  0.0000000000000E+00  0.0000000000000E+00
434  4.3300000000000E+00  0.0000000000000E+00  0.0000000000000E+00
435  4.3400000000000E+00  0.0000000000000E+00  0.0000000000000E+00
436  4.3500000000000E+00  0.0000000000000E+00  0.0000000000000E+00
437  4.3600000000000E+00  0.0000000000000E+00  0.0000000000000E+00
438  4.3700000000000E+00  0.0000000000000E+00  0.0000000000000E+00
439  4.3800000000000E+00  0.0000000000000E+00  0.0000000000000E+00
440  4.3900000000000E+00  0.0000000000000E+00  0.0000000000000E+00
441  4.4000000000000E+00  0.0000000000000E+00  0.0000000000000E+00
442  4.4100000000000E+00  0.0000000000000E+00  0.0000000000000E+00
443  4.4200000000000E+00  0.0000000000000E+00  0.0000000000000E+00