O     ONCVPSP-4.0.1  r_core=   1.29700   1.47943
      8.0000      6.0000      190817    zatom,zion,pspd
     8      11   1     4   600     0    pspcod,pspxc,lmax,lloc,mmax,r2well
  5.99000000  0.00000000  0.00000000    rchrg fchrg qchrg
     2     2     0     0     0    nproj
     1     1           extension_switch
   0                         9.6680801733666E+00  1.3229111763523E+00
     1  0.0000000000000E+00 -1.4705343609478E-09  1.6270221281367E-09
     2  1.0000000000000E-02  9.4366225043070E-02 -2.2483458871271E-02
     3  2.0000000000000E-02  1.8847650009829E-01 -4.4904017382368E-02
     4  3.0000000000000E-02  2.8207563099975E-01 -6.7197457728292E-02
     5  4.0000000000000E-02  3.7490992514494E-01 -8.9296938033718E-02
     6  5.0000000000000E-02  4.6672791747527E-01 -1.1113170783406E-01
     7  6.0000000000000E-02  5.5728106780097E-01 -1.3262585786135E-01
     8  7.0000000000000E-02  6.4632442172347E-01 -1.5369711763780E-01
     9  8.0000000000000E-02  7.3361722887858E-01 -1.7425571600687E-01
    10  9.0000000000000E-02  8.1892351396876E-01 -1.9420332158876E-01
    11  1.0000000000000E-01  9.0201259801480E-01 -2.1343208212556E-01
    12  1.1000000000000E-01  9.8265956936861E-01 -2.3182378365880E-01
    13  1.2000000000000E-01  1.0606457062200E+00 -2.4924915232645E-01
    14  1.3000000000000E-01  1.1357588545220E+00 -2.6556732314189E-01
    15  1.4000000000000E-01  1.2077937673785E+00 -2.8062550128718E-01
    16  1.5000000000000E-01  1.2765524138989E+00 -2.9425884208617E-01
    17  1.6000000000000E-01  1.3418442672660E+00 -3.0629057579758E-01
    18  1.7000000000000E-01  1.4034865831996E+00 -3.1653240257823E-01
    19  1.8000000000000E-01  1.4613046810808E+00 -3.2478518132341E-01
    20  1.9000000000000E-01  1.5151322406691E+00 -3.3083993353059E-01
    21  2.0000000000000E-01  1.5648116275571E+00 -3.3447917981613E-01
    22  2.1000000000000E-01  1.6101942602353E+00 -3.3547862223144E-01
    23  2.2000000000000E-01  1.6511410308618E+00 -3.3360918009949E-01
    24  2.3000000000000E-01  1.6875227905563E+00 -3.2863938077536E-01
    25  2.4000000000000E-01  1.7192209082617E+00 -3.2033809961309E-01
    26  2.5000000000000E-01  1.7461279099840E+00 -3.0847763561360E-01
    27  2.6000000000000E-01  1.7681482025610E+00 -2.9283710087968E-01
    28  2.7000000000000E-01  1.7851988830857E+00 -2.7320609329024E-01
    29  2.8000000000000E-01  1.7972106317859E+00 -2.4938861292441E-01
    30  2.9000000000000E-01  1.8041286826221E+00 -2.2120717393270E-01
    31  3.0000000000000E-01  1.8059138621932E+00 -1.8850705500067E-01
    32  3.1000000000000E-01  1.8025436838375E+00 -1.5116062351737E-01
    33  3.2000000000000E-01  1.7940134801861E+00 -1.0907166129075E-01
    34  3.3000000000000E-01  1.7803375539616E+00 -6.2179613383286E-02
    35  3.4000000000000E-01  1.7615503236394E+00 -1.0463676597351E-02
    36  3.5000000000000E-01  1.7377074377828E+00  4.6053359461713E-02
    37  3.6000000000000E-01  1.7088868295382E+00  1.0730160779757E-01
    38  3.7000000000000E-01  1.6751896810079E+00  1.7316100515876E-01
    39  3.8000000000000E-01  1.6367412660946E+00  2.4345874644143E-01
    40  3.9000000000000E-01  1.5936916399810E+00  3.1796731620979E-01
    41  4.0000000000000E-01  1.5462161437350E+00  3.9640319547036E-01
    42  4.1000000000000E-01  1.4945156936322E+00  4.7842631410763E-01
    43  4.2000000000000E-01  1.4388168266886E+00  5.6364030970273E-01
    44  4.3000000000000E-01  1.3793714765782E+00  6.5159364192448E-01
    45  4.4000000000000E-01  1.3164564575633E+00  7.4178159845576E-01
    46  4.5000000000000E-01  1.2503726382265E+00  8.3364921370529E-01
    47  4.6000000000000E-01  1.1814437916149E+00  9.2659510560222E-01
    48  4.7000000000000E-01  1.1100151137960E+00  1.0199762188655E+00
    49  4.8000000000000E-01  1.0364514086880E+00  1.1131134456082E+00
    50  4.9000000000000E-01  9.6113494324857E-01  1.2052980763265E+00
    51  5.0000000000000E-01  8.8446298356466E-01  1.2957990166087E+00
    52  5.1000000000000E-01  8.0684502893937E-01  1.3838706876638E+00
    53  5.2000000000000E-01  7.2869976758731E-01  1.4687615124066E+00
    54  5.3000000000000E-01  6.5045178387449E-01  1.5497228737210E+00
    55  5.4000000000000E-01  5.7252805303315E-01  1.6260184180379E+00
    56  5.5000000000000E-01  4.9535426480110E-01  1.6969335658442E+00
    57  5.6000000000000E-01  4.1935102234591E-01  1.7617850815062E+00
    58  5.7000000000000E-01  3.4492996701171E-01  1.8199305481144E+00
    59  5.8000000000000E-01  2.7248988275926E-01  1.8707775891631E+00
    60  5.9000000000000E-01  2.0241283656312E-01  1.9137926779382E+00
    61  6.0000000000000E-01  1.3506041240848E-01  1.9485093776086E+00
    62  6.1000000000000E-01  7.0770096837379E-02  1.9745358602439E+00
    63  6.2000000000000E-01  9.8518732005686E-03  1.9915615612921E+00
    64  6.3000000000000E-01 -4.7414920134264E-02  1.9993628373532E+00
    65  6.4000000000000E-01 -1.0078441536517E-01  1.9978075092128E+00
    66  6.5000000000000E-01 -1.5004667642811E-01  1.9868581888299E+00
    67  6.6000000000000E-01 -1.9502975259528E-01  1.9665743080128E+00
    68  6.7000000000000E-01 -2.3560128727295E-01  1.9371127875133E+00
    69  6.8000000000000E-01 -2.7166965149691E-01  1.8987273078261E+00
    70  6.9000000000000E-01 -3.0318457900835E-01  1.8517661666490E+00
    71  7.0000000000000E-01 -3.3013728769073E-01  1.7966687322695E+00
    72  7.1000000000000E-01 -3.5256008040060E-01  1.7339605265782E+00
    73  7.2000000000000E-01 -3.7052542666351E-01  1.6642469954768E+00
    74  7.3000000000000E-01 -3.8414453515508E-01  1.5882060476095E+00
    75  7.4000000000000E-01 -3.9356543516968E-01  1.5065794641179E+00
    76  7.5000000000000E-01 -3.9897059322023E-01  1.4201633020019E+00
    77  7.6000000000000E-01 -4.0057409834352E-01  1.3297974312301E+00
    78  7.7000000000000E-01 -3.9861845644661E-01  1.2363543605665E+00
    79  7.8000000000000E-01 -3.9337103997682E-01  1.1407275188314E+00
    80  7.9000000000000E-01 -3.8512024420215E-01  1.0438191666964E+00
    81  8.0000000000000E-01 -3.7417140534364E-01  9.4652811892619E-01
    82  8.1000000000000E-01 -3.6084253862073E-01  8.4973745807776E-01
    83  8.2000000000000E-01 -3.4545995589747E-01  7.5430241800296E-01
    84  8.3000000000000E-01 -3.2835382301663E-01  6.6103860910125E-01
    85  8.4000000000000E-01 -3.0985371607621E-01  5.7071074724589E-01
    86  8.5000000000000E-01 -2.9028423386156E-01  4.8402203486020E-01
    87  8.6000000000000E-01 -2.6996072044418E-01  4.0160432601961E-01
    88  8.7000000000000E-01 -2.4918514767350E-01  3.2400918805053E-01
    89  8.8000000000000E-01 -2.2824220201897E-01  2.5169995030011E-01
    90  8.9000000000000E-01 -2.0739561408309E-01  1.8504480699362E-01
    91  9.0000000000000E-01 -1.8688476221455E-01  1.2431101576762E-01
    92  9.1000000000000E-01 -1.6692158178072E-01  6.9660245702972E-02
    93  9.2000000000000E-01 -1.4768887454979E-01  2.1150434507462E-02
    94  9.3000000000000E-01 -1.2934235838190E-01 -2.1245323975434E-02
    95  9.4000000000000E-01 -1.1201169610570E-01 -5.7627876370569E-02
    96  9.5000000000000E-01 -9.5800590084605E-02 -8.8167239046753E-02
    97  9.6000000000000E-01 -8.0787254020684E-02 -1.1309691535994E-01
    98  9.7000000000000E-01 -6.7025259025146E-02 -1.3270731452420E-01
    99  9.8000000000000E-01 -5.4544723829359E-02 -1.4733841073429E-01
   100  9.9000000000000E-01 -4.3353811891083E-02 -1.5737180203910E-01
   101  1.0000000000000E+00 -3.3440493706941E-02 -1.6322233691824E-01
   102  1.0100000000000E+00 -2.4774528795953E-02 -1.6532948319570E-01
   103  1.0200000000000E+00 -1.7309619360024E-02 -1.6414861539145E-01
   104  1.0300000000000E+00 -1.0985685968108E-02 -1.6014239562885E-01
   105  1.0400000000000E+00 -5.7312153989702E-03 -1.5377241707643E-01
   106  1.0500000000000E+00 -1.4656312653605E-03 -1.4549127087576E-01
   107  1.0600000000000E+00  1.8983599374871E-03 -1.3573518414016E-01
   108  1.0700000000000E+00  4.4524921679652E-03 -1.2491736214129E-01
   109  1.0800000000000E+00  6.2907734671264E-03 -1.1342214880642E-01
   110  1.0900000000000E+00  7.5074664495041E-03 -1.0160009988383E-01
   111  1.1000000000000E+00  8.1952468489986E-03 -8.9764040142218E-02
   112  1.1100000000000E+00  8.4435657490427E-03 -7.8186153094447E-02
   113  1.1200000000000E+00  8.3372347791032E-03 -6.7096126591392E-02
   114  1.1300000000000E+00  7.9552472819314E-03 -5.6680353497199E-02
   115  1.1400000000000E+00  7.3698419680345E-03 -4.7082162354380E-02
   116  1.1500000000000E+00  6.6458090329199E-03 -3.8403029072291E-02
   117  1.1600000000000E+00  5.8400327673808E-03 -3.0704699556213E-02
   118  1.1700000000000E+00  5.0012586232237E-03 -2.4012132129166E-02
   119  1.1800000000000E+00  4.1700677224066E-03 -1.8317152003045E-02
   120  1.1900000000000E+00  3.3790369191718E-03 -1.3582694220971E-02
   121  1.2000000000000E+00  2.6530588146707E-03 -9.7475002755884E-03
   122  1.2100000000000E+00  2.0097941788071E-03 -6.7311263432763E-03
   123  1.2200000000000E+00  1.4602154188084E-03 -4.4391037706034E-03
   124  1.2300000000000E+00  1.0092595335360E-03 -2.7681575799910E-03
   125  1.2400000000000E+00  6.5467557415376E-04 -1.6091132873834E-03
   126  1.2500000000000E+00  3.8814172742269E-04 -8.5096477234534E-04
   127  1.2600000000000E+00  2.0198439702778E-04 -3.9356692390618E-04
   128  1.2700000000000E+00  8.5337055368671E-05 -1.4782285510062E-04
   129  1.2800000000000E+00  2.4364205491670E-05 -3.8032309645378E-05
   130  1.2900000000000E+00  2.4348442608797E-06 -3.6608904292116E-06
   131  1.3000000000000E+00 -6.6103719375975E-08  1.0306271091950E-07
   132  1.3100000000000E+00  2.3105680338184E-08 -3.3060452084676E-08
   133  1.32 -0.  0.
   134  1.33  0.  0.
   135  1.34  0.  0.
   136  1.35  0.  0.
   137  1.36  0.  0.
   138  1.37  0.  0.
   139  1.38  0.  0.
   140  1.39  0.  0.
   141  1.40  0.  0.
   142  1.41  0.  0.
   143  1.42  0.  0.
   144  1.43  0.  0.
   145  1.44  0.  0.
   146  1.45  0.  0.
   147  1.46  0.  0.
   148  1.47  0.  0.
   149  1.48  0.  0.
   150  1.49  0.  0.
   151  1.50  0.  0.
   152  1.51  0.  0.
   153  1.52  0.  0.
   154  1.53  0.  0.
   155  1.54  0.  0.
   156  1.55  0.  0.
   157  1.56  0.  0.
   158  1.57  0.  0.
   159  1.58  0.  0.
   160  1.59  0.  0.
   161  1.60  0.  0.
   162  1.61  0.  0.
   163  1.62  0.  0.
   164  1.63  0.  0.
   165  1.64  0.  0.
   166  1.65  0.  0.
   167  1.66  0.  0.
   168  1.67  0.  0.
   169  1.68  0.  0.
   170  1.69  0.  0.
   171  1.70  0.  0.
   172  1.71  0.  0.
   173  1.72  0.  0.
   174  1.73  0.  0.
   175  1.74  0.  0.
   176  1.75  0.  0.
   177  1.76  0.  0.
   178  1.77  0.  0.
   179  1.78  0.  0.
   180  1.79  0.  0.
   181  1.80  0.  0.
   182  1.81  0.  0.
   183  1.82  0.  0.
   184  1.83  0.  0.
   185  1.84  0.  0.
   186  1.85  0.  0.
   187  1.86  0.  0.
   188  1.87  0.  0.
   189  1.88  0.  0.
   190  1.89  0.  0.
   191  1.90  0.  0.
   192  1.91  0.  0.
   193  1.92  0.  0.
   194  1.93  0.  0.
   195  1.94  0.  0.
   196  1.95  0.  0.
   197  1.96  0.  0.
   198  1.97  0.  0.
   199  1.98  0.  0.
   200  1.99  0.  0.
   201  2.00  0.  0.
   202  2.01  0.  0.
   203  2.02  0.  0.
   204  2.03  0.  0.
   205  2.04  0.  0.
   206  2.05  0.  0.
   207  2.06  0.  0.
   208  2.07  0.  0.
   209  2.08  0.  0.
   210  2.09  0.  0.
   211  2.10  0.  0.
   212  2.11  0.  0.
   213  2.12  0.  0.
   214  2.13  0.  0.
   215  2.14  0.  0.
   216  2.15  0.  0.
   217  2.16  0.  0.
   218  2.17  0.  0.
   219  2.18  0.  0.
   220  2.19  0.  0.
   221  2.20  0.  0.
   222  2.21  0.  0.
   223  2.22  0.  0.
   224  2.23  0.  0.
   225  2.24  0.  0.
   226  2.25  0.  0.
   227  2.26  0.  0.
   228  2.27  0.  0.
   229  2.28  0.  0.
   230  2.29  0.  0.
   231  2.30  0.  0.
   232  2.31  0.  0.
   233  2.32  0.  0.
   234  2.33  0.  0.
   235  2.34  0.  0.
   236  2.35  0.  0.
   237  2.36  0.  0.
   238  2.37  0.  0.
   239  2.38  0.  0.
   240  2.39  0.  0.
   241  2.40  0.  0.
   242  2.41  0.  0.
   243  2.42  0.  0.
   244  2.43  0.  0.
   245  2.44  0.  0.
   246  2.45  0.  0.
   247  2.46  0.  0.
   248  2.47  0.  0.
   249  2.48  0.  0.
   250  2.49  0.  0.
   251  2.50  0.  0.
   252  2.51  0.  0.
   253  2.52  0.  0.
   254  2.53  0.  0.
   255  2.54  0.  0.
   256  2.55  0.  0.
   257  2.56  0.  0.
   258  2.57  0.  0.
   259  2.58  0.  0.
   260  2.59  0.  0.
   261  2.60  0.  0.
   262  2.61  0.  0.
   263  2.62  0.  0.
   264  2.63  0.  0.
   265  2.64  0.  0.
   266  2.65  0.  0.
   267  2.66  0.  0.
   268  2.67  0.  0.
   269  2.68  0.  0.
   270  2.69  0.  0.
   271  2.70  0.  0.
   272  2.71  0.  0.
   273  2.72  0.  0.
   274  2.73  0.  0.
   275  2.74  0.  0.
   276  2.75  0.  0.
   277  2.76  0.  0.
   278  2.77  0.  0.
   279  2.78  0.  0.
   280  2.79  0.  0.
   281  2.80  0.  0.
   282  2.81  0.  0.
   283  2.82  0.  0.
   284  2.83  0.  0.
   285  2.84  0.  0.
   286  2.85  0.  0.
   287  2.86  0.  0.
   288  2.87  0.  0.
   289  2.88  0.  0.
   290  2.89  0.  0.
   291  2.90  0.  0.
   292  2.91  0.  0.
   293  2.92  0.  0.
   294  2.93  0.  0.
   295  2.94  0.  0.
   296  2.95  0.  0.
   297  2.96  0.  0.
   298  2.97  0.  0.
   299  2.98  0.  0.
   300  2.99  0.  0.
   301  3.00  0.  0.
   302  3.01  0.  0.
   303  3.02  0.  0.
   304  3.03  0.  0.
   305  3.04  0.  0.
   306  3.05  0.  0.
   307  3.06  0.  0.
   308  3.07  0.  0.
   309  3.08  0.  0.
   310  3.09  0.  0.
   311  3.10  0.  0.
   312  3.11  0.  0.
   313  3.12  0.  0.
   314  3.13  0.  0.
   315  3.14  0.  0.
   316  3.15  0.  0.
   317  3.16  0.  0.
   318  3.17  0.  0.
   319  3.18  0.  0.
   320  3.19  0.  0.
   321  3.20  0.  0.
   322  3.21  0.  0.
   323  3.22  0.  0.
   324  3.23  0.  0.
   325  3.24  0.  0.
   326  3.25  0.  0.
   327  3.26  0.  0.
   328  3.27  0.  0.
   329  3.28  0.  0.
   330  3.29  0.  0.
   331  3.30  0.  0.
   332  3.31  0.  0.
   333  3.32  0.  0.
   334  3.33  0.  0.
   335  3.34  0.  0.
   336  3.35  0.  0.
   337  3.36  0.  0.
   338  3.37  0.  0.
   339  3.38  0.  0.
   340  3.39  0.  0.
   341  3.40  0.  0.
   342  3.41  0.  0.
   343  3.42  0.  0.
   344  3.43  0.  0.
   345  3.44  0.  0.
   346  3.45  0.  0.
   347  3.46  0.  0.
   348  3.47  0.  0.
   349  3.48  0.  0.
   350  3.49  0.  0.
   351  3.50  0.  0.
   352  3.51  0.  0.
   353  3.52  0.  0.
   354  3.53  0.  0.
   355  3.54  0.  0.
   356  3.55  0.  0.
   357  3.56  0.  0.
   358  3.57  0.  0.
   359  3.58  0.  0.
   360  3.59  0.  0.
   361  3.60  0.  0.
   362  3.61  0.  0.
   363  3.62  0.  0.
   364  3.63  0.  0.
   365  3.64  0.  0.
   366  3.65  0.  0.
   367  3.66  0.  0.
   368  3.67  0.  0.
   369  3.68  0.  0.
   370  3.69  0.  0.
   371  3.70  0.  0.
   372  3.71  0.  0.
   373  3.72  0.  0.
   374  3.73  0.  0.
   375  3.74  0.  0.
   376  3.75  0.  0.
   377  3.76  0.  0.
   378  3.77  0.  0.
   379  3.78  0.  0.
   380  3.79  0.  0.
   381  3.80  0.  0.
   382  3.81  0.  0.
   383  3.82  0.  0.
   384  3.83  0.  0.
   385  3.84  0.  0.
   386  3.85  0.  0.
   387  3.86  0.  0.
   388  3.87  0.  0.
   389  3.88  0.  0.
   390  3.89  0.  0.
   391  3.90  0.  0.
   392  3.91  0.  0.
   393  3.92  0.  0.
   394  3.93  0.  0.
   395  3.94  0.  0.
   396  3.95  0.  0.
   397  3.96  0.  0.
   398  3.97  0.  0.
   399  3.98  0.  0.
   400  3.99  0.  0.
   401  4.00  0.  0.
   402  4.01  0.  0.
   403  4.02  0.  0.
   404  4.03  0.  0.
   405  4.04  0.  0.
   406  4.05  0.  0.
   407  4.06  0.  0.
   408  4.07  0.  0.
   409  4.08  0.  0.
   410  4.09  0.  0.
   411  4.10  0.  0.
   412  4.11  0.  0.
   413  4.12  0.  0.
   414  4.13  0.  0.
   415  4.14  0.  0.
   416  4.15  0.  0.
   417  4.16  0.  0.
   418  4.17  0.  0.
   419  4.18  0.  0.
   420  4.19  0.  0.
   421  4.20  0.  0.
   422  4.21  0.  0.
   423  4.22  0.  0.
   424  4.23  0.  0.
   425  4.24  0.  0.
   426  4.25  0.  0.
   427  4.26  0.  0.
   428  4.27  0.  0.
   429  4.28  0.  0.
   430  4.29  0.  0.
   431  4.30  0.  0.
   432  4.31  0.  0.
   433  4.32  0.  0.
   434  4.33  0.  0.
   435  4.34  0.  0.
   436  4.35  0.  0.
   437  4.36  0.  0.
   438  4.37  0.  0.
   439  4.38  0.  0.
   440  4.39  0.  0.
   441  4.40  0.  0.
   442  4.41  0.  0.
   443  4.42  0.  0.
   444  4.43  0.  0.
   445  4.44  0.  0.
   446  4.45  0.  0.
   447  4.46  0.  0.
   448  4.47  0.  0.
   449  4.48  0.  0.
   450  4.49  0.  0.
   451  4.50  0.  0.
   452  4.51  0.  0.
   453  4.52  0.  0.
   454  4.53  0.  0.
   455  4.54  0.  0.
   456  4.55  0.  0.
   457  4.56  0.  0.
   458  4.57  0.  0.
   459  4.58  0.  0.
   460  4.59  0.  0.
   461  4.60  0.  0.
   462  4.61  0.  0.
   463  4.62  0.  0.
   464  4.63  0.  0.
   465  4.64  0.  0.
   466  4.65  0.  0.
   467  4.66  0.  0.
   468  4.67  0.  0.
   469  4.68  0.  0.
   470  4.69  0.  0.
   471  4.70  0.  0.
   472  4.71  0.  0.
   473  4.72  0.  0.
   474  4.73  0.  0.
   475  4.74  0.  0.
   476  4.75  0.  0.
   477  4.76  0.  0.
   478  4.77  0.  0.
   479  4.78  0.  0.
   480  4.79  0.  0.
   481  4.80  0.  0.
   482  4.81  0.  0.
   483  4.82  0.  0.
   484  4.83  0.  0.
   485  4.84  0.  0.
   486  4.85  0.  0.
   487  4.86  0.  0.
   488  4.87  0.  0.
   489  4.88  0.  0.
   490  4.89  0.  0.
   491  4.90  0.  0.
   492  4.91  0.  0.
   493  4.92  0.  0.
   494  4.93  0.  0.
   495  4.94  0.  0.
   496  4.95  0.  0.
   497  4.96  0.  0.
   498  4.97  0.  0.
   499  4.98  0.  0.
   500  4.99  0.  0.
   501  5.00  0.  0.
   502  5.01  0.  0.
   503  5.02  0.  0.
   504  5.03  0.  0.
   505  5.04  0.  0.
   506  5.05  0.  0.
   507  5.06  0.  0.
   508  5.07  0.  0.
   509  5.08  0.  0.
   510  5.09  0.  0.
   511  5.10  0.  0.
   512  5.11  0.  0.
   513  5.12  0.  0.
   514  5.13  0.  0.
   515  5.14  0.  0.
   516  5.15  0.  0.
   517  5.16  0.  0.
   518  5.17  0.  0.
   519  5.18  0.  0.
   520  5.19  0.  0.
   521  5.20  0.  0.
   522  5.21  0.  0.
   523  5.22  0.  0.
   524  5.23  0.  0.
   525  5.24  0.  0.
   526  5.25  0.  0.
   527  5.26  0.  0.
   528  5.27  0.  0.
   529  5.28  0.  0.
   530  5.29  0.  0.
   531  5.30  0.  0.
   532  5.31  0.  0.
   533  5.32  0.  0.
   534  5.33  0.  0.
   535  5.34  0.  0.
   536  5.35  0.  0.
   537  5.36  0.  0.
   538  5.37  0.  0.
   539  5.38  0.  0.
   540  5.39  0.  0.
   541  5.40  0.  0.
   542  5.41  0.  0.
   543  5.42  0.  0.
   544  5.43  0.  0.
   545  5.44  0.  0.
   546  5.45  0.  0.
   547  5.46  0.  0.
   548  5.47  0.  0.
   549  5.48  0.  0.
   550  5.49  0.  0.
   551  5.50  0.  0.
   552  5.51  0.  0.
   553  5.52  0.  0.
   554  5.53  0.  0.
   555  5.54  0.  0.
   556  5.55  0.  0.
   557  5.56  0.  0.
   558  5.57  0.  0.
   559  5.58  0.  0.
   560  5.59  0.  0.
   561  5.60  0.  0.
   562  5.61  0.  0.
   563  5.62  0.  0.
   564  5.63  0.  0.
   565  5.64  0.  0.
   566  5.65  0.  0.
   567  5.66  0.  0.
   568  5.67  0.  0.
   569  5.68  0.  0.
   570  5.69  0.  0.
   571  5.70  0.  0.
   572  5.71  0.  0.
   573  5.72  0.  0.
   574  5.73  0.  0.
   575  5.74  0.  0.
   576  5.75  0.  0.
   577  5.76  0.  0.
   578  5.77  0.  0.
   579  5.78  0.  0.
   580  5.79  0.  0.
   581  5.80  0.  0.
   582  5.81  0.  0.
   583  5.82  0.  0.
   584  5.83  0.  0.
   585  5.84  0.  0.
   586  5.85  0.  0.
   587  5.86  0.  0.
   588  5.87  0.  0.
   589  5.88  0.  0.
   590  5.89  0.  0.
   591  5.90  0.  0.
   592  5.91  0.  0.
   593  5.92  0.  0.
   594  5.93  0.  0.
   595  5.94  0.  0.
   596  5.95  0.  0.
   597  5.96  0.  0.
   598  5.97  0.  0.
   599  5.98  0.  0.
   600  5.99  0.  0.
   1                        -3.6470396277117E+00 -1.0747257895161E+00
     1  0.0000000000000E+00  1.5248658807865E-08 -2.0981109467855E-08
     2  1.0000000000000E-02  2.3391968585049E-03 -1.0900602195581E-03
     3  2.0000000000000E-02  9.3342473601310E-03 -4.3353032830529E-03
     4  3.0000000000000E-02  2.0917939797673E-02 -9.6614649618027E-03
     5  4.0000000000000E-02  3.6979607114589E-02 -1.6946587298510E-02
     6  5.0000000000000E-02  5.7367123390895E-02 -2.6023697856262E-02
     7  6.0000000000000E-02  8.1889635280233E-02 -3.6684472939387E-02
     8  7.0000000000000E-02  1.1032096649237E-01 -4.8683799476312E-02
     9  8.0000000000000E-02  1.4240361816669E-01 -6.1745129273406E-02
    10  9.0000000000000E-02  1.7785327448976E-01 -7.5566500809865E-02
    11  1.0000000000000E-01  2.1636371148277E-01 -8.9827088076034E-02
    12  1.1000000000000E-01  2.5761199778836E-01 -1.0419412352787E-01
    13  1.2000000000000E-01  3.0126386973416E-01 -1.1833003333388E-01
    14  1.3000000000000E-01  3.4697915909941E-01 -1.3189961794094E-01
    15  1.4000000000000E-01  3.9441715095995E-01 -1.4457710971739E-01
    16  1.5000000000000E-01  4.4324175077008E-01 -1.5605294208700E-01
    17  1.6000000000000E-01  4.9312634443061E-01 -1.6604007110444E-01
    18  1.7000000000000E-01  5.4375824239889E-01 -1.7427970070871E-01
    19  1.8000000000000E-01  5.9484260876885E-01 -1.8054627670970E-01
    20  1.9000000000000E-01  6.4610578847398E-01 -1.8465163161449E-01
    21  2.0000000000000E-01  6.9729796008243E-01 -1.8644818231300E-01
    22  2.1000000000000E-01  7.4819505774518E-01 -1.8583110497451E-01
    23  2.2000000000000E-01  7.9859992337274E-01 -1.8273943575977E-01
    24  2.3000000000000E-01  8.4834266866139E-01 -1.7715607158176E-01
    25  2.4000000000000E-01  8.9728024575205E-01 -1.6910667157025E-01
    26  2.5000000000000E-01  9.4529524464878E-01 -1.5865748650716E-01
    27  2.6000000000000E-01  9.9229395460933E-01 -1.4591216968657E-01
    28  2.7000000000000E-01  1.0382037451063E+00 -1.3100764780728E-01
    29  2.8000000000000E-01  1.0829698392165E+00 -1.1410915403292E-01
    30  2.9000000000000E-01  1.1265515680218E+00 -9.5404546695778E-02
    31  3.0000000000000E-01  1.1689182084163E+00 -7.5098055758028E-02
    32  3.1000000000000E-01  1.2100445182796E+00 -5.3403614617084E-02
    33  3.2000000000000E-01  1.2499060919964E+00 -3.0537946757316E-02
    34  3.3000000000000E-01  1.2884746655442E+00 -6.7135847903675E-03
    35  3.4000000000000E-01  1.3257135036580E+00  1.7867996641647E-02
    36  3.5000000000000E-01  1.3615730017895E+00  4.3022952943591E-02
    37  3.6000000000000E-01  1.3959866326749E+00  6.8591170083825E-02
    38  3.7000000000000E-01  1.4288673613243E+00  9.4441725869865E-02
    39  3.8000000000000E-01  1.4601046432368E+00  1.2047755726424E-01
    40  3.9000000000000E-01  1.4895621088040E+00  1.4663919583925E-01
    41  4.0000000000000E-01  1.5170760223974E+00  1.7290745380981E-01
    42  4.1000000000000E-01  1.5424545878469E+00  1.9930496652907E-01
    43  4.2000000000000E-01  1.5654781532484E+00  2.2589652338680E-01
    44  4.3000000000000E-01  1.5859003476730E+00  2.5278814715562E-01
    45  4.4000000000000E-01  1.6034501608410E+00  2.8012491136848E-01
    46  4.5000000000000E-01  1.6178349546166E+00  3.0808751562774E-01
    47  4.6000000000000E-01  1.6287443727824E+00  3.3688766915573E-01
    48  4.7000000000000E-01  1.6358550934514E+00  3.6676236270502E-01
    49  4.8000000000000E-01  1.6388363471759E+00  3.9796713746071E-01
    50  4.9000000000000E-01  1.6373561038088E+00  4.3076848611341E-01
    51  5.0000000000000E-01  1.6310878129265E+00  4.6543554522330E-01
    52  5.1000000000000E-01  1.6197175665732E+00  5.0223125874248E-01
    53  5.2000000000000E-01  1.6029515396278E+00  5.4140320959018E-01
    54  5.3000000000000E-01  1.5805235525679E+00  5.8317432903541E-01
    55  5.4000000000000E-01  1.5522025940884E+00  6.2773370197146E-01
    56  5.5000000000000E-01  1.5178001371485E+00  6.7522768970449E-01
    57  5.6000000000000E-01  1.4771770817017E+00  7.2575159046225E-01
    58  5.7000000000000E-01  1.4302501606810E+00  7.7934205141185E-01
    59  5.8000000000000E-01  1.3769976527455E+00  8.3597043461649E-01
    60  5.9000000000000E-01  1.3174642557574E+00  8.9553732323829E-01
    61  6.0000000000000E-01  1.2517649887656E+00  9.5786833368982E-01
    62  6.1000000000000E-01  1.1800880071846E+00  1.0227113747430E+00
    63  6.2000000000000E-01  1.1026962355440E+00  1.0897354663083E+00
    64  6.3000000000000E-01  1.0199277442650E+00  1.1585311992745E+00
    65  6.4000000000000E-01  9.3219482094361E-01  1.2286128841066E+00
    66  6.5000000000000E-01  8.3998171209963E-01  1.2994224005449E+00
    67  6.6000000000000E-01  7.4384103774939E-01  1.3703347245064E+00
    68  6.7000000000000E-01  6.4438890792261E-01  1.4406650719391E+00
    69  6.8000000000000E-01  5.4229879679834E-01  1.5096775637431E+00
    70  6.9000000000000E-01  4.3829425590315E-01  1.5765952817416E+00
    71  7.0000000000000E-01  3.3314057223822E-01  1.6406115538389E+00
    72  7.1000000000000E-01  2.2763549973355E-01  1.7009022776916E+00
    73  7.2000000000000E-01  1.2259921256894E-01  1.7566390671047E+00
    74  7.3000000000000E-01  1.8863646187781E-02  1.8070029845709E+00
    75  7.4000000000000E-01 -8.2738594132584E-02  1.8511986074049E+00
    76  7.5000000000000E-01 -1.8138556683957E-01  1.8884681642023E+00
    77  7.6000000000000E-01 -2.7627737286954E-01  1.9181054731862E+00
    78  7.7000000000000E-01 -3.6664738010393E-01  1.9394694145656E+00
    79  7.8000000000000E-01 -4.5177309552284E-01  1.9519966753877E+00
    80  7.9000000000000E-01 -5.3098649269112E-01  1.9552135174425E+00
    81  8.0000000000000E-01 -6.0368361186309E-01  1.9487463363826E+00
    82  8.1000000000000E-01 -6.6933326348882E-01  1.9323308030207E+00
    83  8.2000000000000E-01 -7.2748468298612E-01  1.9058194053318E+00
    84  8.3000000000000E-01 -7.7777400496619E-01  1.8691872414557E+00
    85  8.4000000000000E-01 -8.1992944825441E-01  1.8225359493246E+00
    86  8.5000000000000E-01 -8.5377512855360E-01  1.7660956966885E+00
    87  8.6000000000000E-01 -8.7923344292424E-01  1.7002251954853E+00
    88  8.7000000000000E-01 -8.9632599883248E-01  1.6254097458328E+00
    89  8.8000000000000E-01 -9.0517308973998E-01  1.5422573565386E+00
    90  8.9000000000000E-01 -9.0599174847064E-01  1.4514930300413E+00
    91  9.0000000000000E-01 -8.9909243829999E-01  1.3539513393384E+00
    92  9.1000000000000E-01 -8.8487446046144E-01  1.2505674297799E+00
    93  9.2000000000000E-01 -8.6381894758242E-01  1.1423622130950E+00
    94  9.3000000000000E-01 -8.3647692309929E-01  1.0304136527364E+00
    95  9.4000000000000E-01 -8.0345813199580E-01  9.1583543499471E-01
    96  9.5000000000000E-01 -7.6542068701449E-01  7.9976117472268E-01
    97  9.6000000000000E-01 -7.2306017326451E-01  6.8332834355534E-01
    98  9.7000000000000E-01 -6.7709838284159E-01  5.6766211460822E-01
    99  9.8000000000000E-01 -6.2827188039422E-01  4.5385941189515E-01
   100  9.9000000000000E-01 -5.7732060354544E-01  3.4297345588061E-01
   101  1.0000000000000E+00 -5.2497669897597E-01  2.3599908636667E-01
   102  1.0100000000000E+00 -4.7195378836183E-01  1.3385912946186E-01
   103  1.0200000000000E+00 -4.1893684757378E-01  3.7392054352754E-02
   104  1.0300000000000E+00 -3.6657286852507E-01 -5.2658859402062E-02
   105  1.0400000000000E+00 -3.1546245541996E-01 -1.3565465388664E-01
   106  1.0500000000000E+00 -2.6615248709554E-01 -2.1106796708970E-01
   107  1.0600000000000E+00 -2.1912995411818E-01 -2.7848833010933E-01
   108  1.0700000000000E+00 -1.7481705489618E-01 -3.3762540656661E-01
   109  1.0800000000000E+00 -1.3356760871857E-01 -3.8831013502735E-01
   110  1.0900000000000E+00 -9.5664816880898E-02 -4.3049377625000E-01
   111  1.1000000000000E+00 -6.1320375629770E-02 -4.6424490895218E-01
   112  1.1100000000000E+00 -3.0674917888160E-02 -4.8974445758549E-01
   113  1.1200000000000E+00 -3.7997344567267E-03 -5.0727887451756E-01
   114  1.1300000000000E+00  1.9300299234466E-02 -5.1723163442320E-01
   115  1.1400000000000E+00  3.8682687491856E-02 -5.2007323090888E-01
   116  1.1500000000000E+00  5.4462287135581E-02 -5.1634989391344E-01
   117  1.1600000000000E+00  6.6805423328175E-02 -5.0667126922339E-01
   118  1.1700000000000E+00  7.5923297945343E-02 -4.9169732041643E-01
   119  1.1800000000000E+00  8.2064850743213E-02 -4.7212472547920E-01
   120  1.1900000000000E+00  8.5509241357533E-02 -4.4867304786929E-01
   121  1.2000000000000E+00  8.6558123754483E-02 -4.2207096234664E-01
   122  1.2100000000000E+00  8.5527884757524E-02 -3.9304281096558E-01
   123  1.2200000000000E+00  8.2742014649376E-02 -3.6229575411921E-01
   124  1.2300000000000E+00  7.8523770315920E-02 -3.3050776479441E-01
   125  1.2400000000000E+00  7.3189280872302E-02 -2.9831669324061E-01
   126  1.2500000000000E+00  6.7041231596788E-02 -2.6631060256447E-01
   127  1.2600000000000E+00  6.0363245617390E-02 -2.3501954612615E-01
   128  1.2700000000000E+00  5.3415063556474E-02 -2.0490892352837E-01
   129  1.2800000000000E+00  4.6428600468990E-02 -1.7637451583583E-01
   130  1.2900000000000E+00  3.9604937156855E-02 -1.4973926277047E-01
   131  1.3000000000000E+00  3.3112279389284E-02 -1.2525180489181E-01
   132  1.3100000000000E+00  2.7084895194038E-02 -1.0308677502855E-01
   133  1.3200000000000E+00  2.1623016720705E-02 -8.3346784202148E-02
   134  1.3300000000000E+00  1.6793670440514E-02 -6.6066010309079E-02
   135  1.3400000000000E+00  1.2632377902664E-02 -5.1215263103984E-02
   136  1.3500000000000E+00  9.1456494638696E-03 -3.8708367485996E-02
   137  1.3600000000000E+00  6.3141755519147E-03 -2.8409678989963E-02
   138  1.3700000000000E+00  4.0966050835231E-03 -2.0142522398040E-02
   139  1.3800000000000E+00  2.4337836102724E-03 -1.3698319480758E-02
   140  1.3900000000000E+00  1.2533675809306E-03 -8.8462278274877E-03
   141  1.4000000000000E+00  4.7445108490114E-04 -5.3427486932684E-03
   142  1.4100000000000E+00  1.4678807286746E-05 -2.9444573209012E-03
   143  1.4200000000000E+00 -1.9764569651626E-04 -1.4271569926882E-03
   144  1.4300000000000E+00 -2.4368106940090E-04 -5.6263596196004E-04
   145  1.4400000000000E+00 -1.9736308247172E-04 -1.4300686968452E-04
   146  1.4500000000000E+00 -1.1820427698104E-04  7.5102318113017E-06
   147  1.4600000000000E+00 -4.8111763654457E-05  2.6431945465695E-05
   148  1.4700000000000E+00 -8.7955386999316E-06  8.0347651198745E-06
   149  1.4800000000000E+00  1.1882481302611E-07 -1.6327062866398E-07