O     ONCVPSP  r_core=  1.36  1.46  1.26
8.0000      6.0000      151103    zatom,zion,pspd
8      11   2     4   600     0    pspcod,pspxc,lmax,lloc,mmax,r2well
5.99000000  4.00000000  0.00000000    rchrg fchrg qchrg
2     2     1     0     0    nproj
1                 extension_switch
0                         5.2572115247182E+00  7.0424088935255E-01
1  0.0000000000000E+00 -5.5465312343017E-09  1.6075256847881E-08
2  1.0000000000000E-02  9.4968528244248E-02 -4.7304235922137E-02
3  2.0000000000000E-02  1.8945043067282E-01 -9.3699914387904E-02
4  3.0000000000000E-02  2.8296476540873E-01 -1.3829354695588E-01
5  4.0000000000000E-02  3.7504186986599E-01 -1.8022153027351E-01
6  5.0000000000000E-02  4.6522878037388E-01 -2.1866446045614E-01
7  6.0000000000000E-02  5.5309439179705E-01 -2.5286070532429E-01
8  7.0000000000000E-02  6.3823427711597E-01 -2.8211900634252E-01
9  8.0000000000000E-02  7.2027509247863E-01 -3.0582989817874E-01
10  9.0000000000000E-02  7.9887849999668E-01 -3.2347575340021E-01
11  1.0000000000000E-01  8.7374454842828E-01 -3.3463928262379E-01
12  1.1000000000000E-01  9.4461446073677E-01 -3.3901034607147E-01
13  1.2000000000000E-01  1.0112727871968E+00 -3.3639096052984E-01
14  1.3000000000000E-01  1.0735488930794E+00 -3.2669841571697E-01
15  1.4000000000000E-01  1.1313177608145E+00 -3.0996644553047E-01
16  1.5000000000000E-01  1.1845000977337E+00 -2.8634443207491E-01
17  1.6000000000000E-01  1.2330617518400E+00 -2.5609465320984E-01
18  1.7000000000000E-01  1.2770124493720E+00 -2.1958761708771E-01
19  1.8000000000000E-01  1.3164038790180E+00 -1.7729555922254E-01
20  1.9000000000000E-01  1.3513271583280E+00 -1.2978420851849E-01
21  2.0000000000000E-01  1.3819097279836E+00 -7.7702957883754E-02
22  2.1000000000000E-01  1.4083117289549E+00 -2.1773602073379E-02
23  2.2000000000000E-01  1.4307219260391E+00  3.7222170201713E-02
24  2.3000000000000E-01  1.4493532487094E+00  9.8456321503464E-02
25  2.4000000000000E-01  1.4644380264635E+00  1.6106882186931E-01
26  2.5000000000000E-01  1.4762230008644E+00  2.2418257535633E-01
27  2.6000000000000E-01  1.4849642001064E+00  2.8691866596775E-01
28  2.7000000000000E-01  1.4909217641691E+00  3.4841166580281E-01
29  2.8000000000000E-01  1.4943548093988E+00  4.0782474630891E-01
30  2.9000000000000E-01  1.4955164206495E+00  4.6436433584383E-01
31  3.0000000000000E-01  1.4946488569606E+00  5.1729407334541E-01
32  3.1000000000000E-01  1.4919790531437E+00  5.6594781866889E-01
33  3.2000000000000E-01  1.4877144946784E+00  6.0974149492418E-01
34  3.3000000000000E-01  1.4820395370418E+00  6.4818355670118E-01
35  3.4000000000000E-01  1.4751122331155E+00  6.8088390011954E-01
36  3.5000000000000E-01  1.4670617237577E+00  7.0756105583262E-01
37  3.6000000000000E-01  1.4579862371198E+00  7.2804753405532E-01
38  3.7000000000000E-01  1.4479517319934E+00  7.4229322091924E-01
39  3.8000000000000E-01  1.4369912095500E+00  7.5036675750753E-01
40  3.9000000000000E-01  1.4251047064691E+00  7.5245486625920E-01
41  4.0000000000000E-01  1.4122599708195E+00  7.4885962352399E-01
42  4.1000000000000E-01  1.3983938103580E+00  7.3999371133324E-01
43  4.2000000000000E-01  1.3834140913340E+00  7.2637371536797E-01
44  4.3000000000000E-01  1.3672023546212E+00  7.0861156909722E-01
45  4.4000000000000E-01  1.3496170052390E+00  6.8740427557431E-01
46  4.5000000000000E-01  1.3304970212419E+00  6.6352206789951E-01
47  4.6000000000000E-01  1.3096661187293E+00  6.3779519638227E-01
48  4.7000000000000E-01  1.2869373015045E+00  6.1109955451129E-01
49  4.8000000000000E-01  1.2621177168397E+00  5.8434137655724E-01
50  4.9000000000000E-01  1.2350137330064E+00  5.5844125662814E-01
51  5.0000000000000E-01  1.2054361498015E+00  5.3431775197627E-01
52  5.1000000000000E-01  1.1732054503300E+00  5.1287084207993E-01
53  5.2000000000000E-01  1.1381570008483E+00  4.9496551933244E-01
54  5.3000000000000E-01  1.1001461055575E+00  4.8141578695665E-01
55  5.4000000000000E-01  1.0590528248733E+00  4.7296933502371E-01
56  5.5000000000000E-01  1.0147864688768E+00  4.7029315622138E-01
57  5.6000000000000E-01  9.6728968231259E-01  4.7396034941943E-01
58  5.7000000000000E-01  9.1654204358466E-01  4.8443834135675E-01
59  5.8000000000000E-01  8.6256310763477E-01  5.0207873507593E-01
60  5.9000000000000E-01  8.0541483119975E-01  5.2710896860408E-01
61  6.0000000000000E-01  7.4520332869835E-01  5.5962593890082E-01
62  6.1000000000000E-01  6.8207991761361E-01  5.9959171509611E-01
63  6.2000000000000E-01  6.1624142367214E-01  6.4683143163608E-01
64  6.3000000000000E-01  5.4792972810855E-01  7.0103341693067E-01
65  6.4000000000000E-01  4.7743055164574E-01  7.6175157702149E-01
66  6.5000000000000E-01  4.0507148242768E-01  8.2841001693057E-01
67  6.6000000000000E-01  3.3121926763530E-01  9.0030984580512E-01
68  6.7000000000000E-01  2.5627640082683E-01  9.7663807594765E-01
69  6.8000000000000E-01  1.8067704894489E-01  1.0564784909753E+00
70  6.9000000000000E-01  1.0488237416584E-01  1.1388243254389E+00
71  7.0000000000000E-01  2.9375316176901E-02  1.2225925677043E+00
72  7.1000000000000E-01 -4.5345090053890E-02  1.3066396700717E+00
73  7.2000000000000E-01 -1.1876977768952E-01  1.3897784258172E+00
74  7.3000000000000E-01 -1.9038600229637E-01  1.4707957522300E+00
75  7.4000000000000E-01 -2.5968389107954E-01  1.5484711022269E+00
76  7.5000000000000E-01 -3.2616308713771E-01  1.6215952150921E+00
77  7.6000000000000E-01 -3.8933938631653E-01  1.6889889094069E+00
78  7.7000000000000E-01 -4.4875126343299E-01  1.7495216186278E+00
79  7.8000000000000E-01 -5.0396618548299E-01  1.8021293719404E+00
80  7.9000000000000E-01 -5.5458661195199E-01  1.8458319300552E+00
81  8.0000000000000E-01 -6.0025558648401E-01  1.8797487973792E+00
82  8.1000000000000E-01 -6.4066182987154E-01  1.9031138483517E+00
83  8.2000000000000E-01 -6.7554425152143E-01  1.9152883264090E+00
84  8.3000000000000E-01 -7.0469580512263E-01  1.9157719987399E+00
85  8.4000000000000E-01 -7.2796662405476E-01  1.9042122783163E+00
86  8.5000000000000E-01 -7.4526638298172E-01  1.8804111561844E+00
87  8.6000000000000E-01 -7.5656584389718E-01  1.8443298211945E+00
88  8.7000000000000E-01 -7.6189755744063E-01  1.7960908806640E+00
89  8.8000000000000E-01 -7.6135570338402E-01  1.7359781333402E+00
90  8.9000000000000E-01 -7.5509506758717E-01  1.6644338848387E+00
91  9.0000000000000E-01 -7.4332916621915E-01  1.5820538348439E+00
92  9.1000000000000E-01 -7.2632754142269E-01  1.4895796041422E+00
93  9.2000000000000E-01 -7.0441226564063E-01  1.3878890073667E+00
94  9.3000000000000E-01 -6.7795370431326E-01  1.2779842135561E+00
95  9.4000000000000E-01 -6.4736559838748E-01  1.1609779706561E+00
96  9.5000000000000E-01 -6.1309953885834E-01  1.0380781013691E+00
97  9.6000000000000E-01 -5.7563891521158E-01  9.1057050575076E-01
98  9.7000000000000E-01 -5.3549242798859E-01  7.7980093019617E-01
99  9.8000000000000E-01 -4.9318726262618E-01  6.4715578257690E-01
100  9.9000000000000E-01 -4.4926202706885E-01  5.1404228881116E-01
101  1.0000000000000E+00 -4.0425955936843E-01  3.8186829694707E-01
102  1.0100000000000E+00 -3.5871971356674E-01  2.5202204088822E-01
103  1.0200000000000E+00 -3.1317223233648E-01  1.2585217642297E-01
104  1.0300000000000E+00 -2.6812981340318E-01  4.6483980145193E-03
105  1.0400000000000E+00 -2.2408147359819E-01 -1.1037706438943E-01
106  1.0500000000000E+00 -1.8148630905914E-01 -2.1810678473764E-01
107  1.0600000000000E+00 -1.4076774449110E-01 -3.1753404891227E-01
108  1.0700000000000E+00 -1.0230835526526E-01 -4.0777709039336E-01
109  1.0800000000000E+00 -6.6445337405098E-02 -4.8809143784425E-01
110  1.0900000000000E+00 -3.3466689671640E-02 -5.5788019035991E-01
111  1.1000000000000E+00 -3.6081595234731E-03 -6.1670207220468E-01
112  1.1100000000000E+00  2.2949005711169E-02 -6.6427714915423E-01
113  1.1200000000000E+00  4.6079477271068E-02 -7.0049013544036E-01
114  1.1300000000000E+00  6.5714419265802E-02 -7.2539125348184E-01
115  1.1400000000000E+00  8.1841221187678E-02 -7.3919465524195E-01
116  1.1500000000000E+00  9.4502401226785E-02 -7.4227444380023E-01
117  1.1600000000000E+00  1.0379371110062E-01 -7.3515838627392E-01
118  1.1700000000000E+00  1.0986148568399E-01 -7.1851944747610E-01
119  1.1800000000000E+00  1.1289929298254E-01 -6.9316530611566E-01
120  1.1900000000000E+00  1.1314386554259E-01 -6.6002574195477E-01
121  1.2000000000000E+00  1.1087074223812E-01 -6.2013940253930E-01
122  1.2100000000000E+00  1.0638910317594E-01 -5.7463799679145E-01
123  1.2200000000000E+00  1.0003386482331E-01 -5.2472057240701E-01
124  1.2300000000000E+00  9.2157116768957E-02 -4.7162607574298E-01
125  1.2400000000000E+00  8.3119871578047E-02 -4.1660755418507E-01
126  1.2500000000000E+00  7.3285775958198E-02 -3.6091394293662E-01
127  1.2600000000000E+00  6.3014315241258E-02 -3.0576992743235E-01
128  1.2700000000000E+00  5.2654245434976E-02 -2.5235658066821E-01
129  1.2800000000000E+00  4.2537249563198E-02 -2.0179267228242E-01
130  1.2900000000000E+00  3.2971950585396E-02 -1.5511705355507E-01
131  1.3000000000000E+00  2.4238361436849E-02 -1.1327234061461E-01
132  1.3100000000000E+00  1.6585001417533E-02 -7.7100017494382E-02
133  1.3200000000000E+00  1.0216947617757E-02 -4.7292721395331E-02
134  1.3300000000000E+00  5.2694693261048E-03 -2.4280865633573E-02
135  1.3400000000000E+00  1.9706346471172E-03 -8.9756241199469E-03
136  1.3500000000000E+00  3.7344510594944E-04 -1.5554436620009E-03
137  1.3600000000000E+00 -6.9364112132192E-05  4.4103476648436E-04
138  1.3700000000000E+00 -1.5589573966029E-05  8.3835985269138E-05
139  1.3800000000000E+00  2.8084445244228E-05 -1.4685481755645E-04
140  1.3900000000000E+00 -2.2432824007126E-06  1.2293899894255E-05
141  1.4000000000000E+00 -3.5538848817516E-06  1.9190101249116E-05
142  1.4100000000000E+00 -1.2444757550781E-07  1.5787950696566E-07
143  1.4200000000000E+00 -3.1584233181265E-08  4.0069106547066E-08
144  1.4300000000000E+00  0.0000000000000E+00  0.0000000000000E+00
145  1.4400000000000E+00  0.0000000000000E+00  0.0000000000000E+00
146  1.4500000000000E+00  0.0000000000000E+00  0.0000000000000E+00
147  1.4600000000000E+00  0.0000000000000E+00  0.0000000000000E+00
148  1.4700000000000E+00  0.0000000000000E+00  0.0000000000000E+00
149  1.4800000000000E+00  0.0000000000000E+00  0.0000000000000E+00
150  1.4900000000000E+00  0.0000000000000E+00  0.0000000000000E+00
151  1.5000000000000E+00  0.0000000000000E+00  0.0000000000000E+00
152  1.5100000000000E+00  0.0000000000000E+00  0.0000000000000E+00
153  1.5200000000000E+00  0.0000000000000E+00  0.0000000000000E+00
154  1.5300000000000E+00  0.0000000000000E+00  0.0000000000000E+00
155  1.5400000000000E+00  0.0000000000000E+00  0.0000000000000E+00
156  1.5500000000000E+00  0.0000000000000E+00  0.0000000000000E+00
157  1.5600000000000E+00  0.0000000000000E+00  0.0000000000000E+00
158  1.5700000000000E+00  0.0000000000000E+00  0.0000000000000E+00
159  1.5800000000000E+00  0.0000000000000E+00  0.0000000000000E+00
160  1.5900000000000E+00  0.0000000000000E+00  0.0000000000000E+00
161  1.6000000000000E+00  0.0000000000000E+00  0.0000000000000E+00
162  1.6100000000000E+00  0.0000000000000E+00  0.0000000000000E+00
163  1.6200000000000E+00  0.0000000000000E+00  0.0000000000000E+00
164  1.6300000000000E+00  0.0000000000000E+00  0.0000000000000E+00
165  1.6400000000000E+00  0.0000000000000E+00  0.0000000000000E+00
166  1.6500000000000E+00  0.0000000000000E+00  0.0000000000000E+00
167  1.6600000000000E+00  0.0000000000000E+00  0.0000000000000E+00
168  1.6700000000000E+00  0.0000000000000E+00  0.0000000000000E+00
169  1.6800000000000E+00  0.0000000000000E+00  0.0000000000000E+00
170  1.6900000000000E+00  0.0000000000000E+00  0.0000000000000E+00
171  1.7000000000000E+00  0.0000000000000E+00  0.0000000000000E+00
172  1.7100000000000E+00  0.0000000000000E+00  0.0000000000000E+00
173  1.7200000000000E+00  0.0000000000000E+00  0.0000000000000E+00
174  1.7300000000000E+00  0.0000000000000E+00  0.0000000000000E+00
175  1.7400000000000E+00  0.0000000000000E+00  0.0000000000000E+00
176  1.7500000000000E+00  0.0000000000000E+00  0.0000000000000E+00
177  1.7600000000000E+00  0.0000000000000E+00  0.0000000000000E+00
178  1.7700000000000E+00  0.0000000000000E+00  0.0000000000000E+00
179  1.7800000000000E+00  0.0000000000000E+00  0.0000000000000E+00
180  1.7900000000000E+00  0.0000000000000E+00  0.0000000000000E+00
181  1.8000000000000E+00  0.0000000000000E+00  0.0000000000000E+00
182  1.8100000000000E+00  0.0000000000000E+00  0.0000000000000E+00
183  1.8200000000000E+00  0.0000000000000E+00  0.0000000000000E+00
184  1.8300000000000E+00  0.0000000000000E+00  0.0000000000000E+00
185  1.8400000000000E+00  0.0000000000000E+00  0.0000000000000E+00
186  1.8500000000000E+00  0.0000000000000E+00  0.0000000000000E+00
187  1.8600000000000E+00  0.0000000000000E+00  0.0000000000000E+00
188  1.8700000000000E+00  0.0000000000000E+00  0.0000000000000E+00
189  1.8800000000000E+00  0.0000000000000E+00  0.0000000000000E+00
190  1.8900000000000E+00  0.0000000000000E+00  0.0000000000000E+00
191  1.9000000000000E+00  0.0000000000000E+00  0.0000000000000E+00
192  1.9100000000000E+00  0.0000000000000E+00  0.0000000000000E+00
193  1.9200000000000E+00  0.0000000000000E+00  0.0000000000000E+00
194  1.9300000000000E+00  0.0000000000000E+00  0.0000000000000E+00
195  1.9400000000000E+00  0.0000000000000E+00  0.0000000000000E+00
196  1.9500000000000E+00  0.0000000000000E+00  0.0000000000000E+00
197  1.9600000000000E+00  0.0000000000000E+00  0.0000000000000E+00
198  1.9700000000000E+00  0.0000000000000E+00  0.0000000000000E+00
199  1.9800000000000E+00  0.0000000000000E+00  0.0000000000000E+00
200  1.9900000000000E+00  0.0000000000000E+00  0.0000000000000E+00
201  2.0000000000000E+00  0.0000000000000E+00  0.0000000000000E+00
202  2.0100000000000E+00  0.0000000000000E+00  0.0000000000000E+00
203  2.0200000000000E+00  0.0000000000000E+00  0.0000000000000E+00
204  2.0300000000000E+00  0.0000000000000E+00  0.0000000000000E+00
205  2.0400000000000E+00  0.0000000000000E+00  0.0000000000000E+00
206  2.0500000000000E+00  0.0000000000000E+00  0.0000000000000E+00
207  2.0600000000000E+00  0.0000000000000E+00  0.0000000000000E+00
208  2.0700000000000E+00  0.0000000000000E+00  0.0000000000000E+00
209  2.0800000000000E+00  0.0000000000000E+00  0.0000000000000E+00
210  2.0900000000000E+00  0.0000000000000E+00  0.0000000000000E+00
211  2.1000000000000E+00  0.0000000000000E+00  0.0000000000000E+00
212  2.1100000000000E+00  0.0000000000000E+00  0.0000000000000E+00
213  2.1200000000000E+00  0.0000000000000E+00  0.0000000000000E+00
214  2.1300000000000E+00  0.0000000000000E+00  0.0000000000000E+00
215  2.1400000000000E+00  0.0000000000000E+00  0.0000000000000E+00
216  2.1500000000000E+00  0.0000000000000E+00  0.0000000000000E+00
217  2.1600000000000E+00  0.0000000000000E+00  0.0000000000000E+00
218  2.1700000000000E+00  0.0000000000000E+00  0.0000000000000E+00
219  2.1800000000000E+00  0.0000000000000E+00  0.0000000000000E+00
220  2.1900000000000E+00  0.0000000000000E+00  0.0000000000000E+00
221  2.2000000000000E+00  0.0000000000000E+00  0.0000000000000E+00
222  2.2100000000000E+00  0.0000000000000E+00  0.0000000000000E+00
223  2.2200000000000E+00  0.0000000000000E+00  0.0000000000000E+00
224  2.2300000000000E+00  0.0000000000000E+00  0.0000000000000E+00
225  2.2400000000000E+00  0.0000000000000E+00  0.0000000000000E+00
226  2.2500000000000E+00  0.0000000000000E+00  0.0000000000000E+00
227  2.2600000000000E+00  0.0000000000000E+00  0.0000000000000E+00
228  2.2700000000000E+00  0.0000000000000E+00  0.0000000000000E+00
229  2.2800000000000E+00  0.0000000000000E+00  0.0000000000000E+00
230  2.2900000000000E+00  0.0000000000000E+00  0.0000000000000E+00
231  2.3000000000000E+00  0.0000000000000E+00  0.0000000000000E+00
232  2.3100000000000E+00  0.0000000000000E+00  0.0000000000000E+00
233  2.3200000000000E+00  0.0000000000000E+00  0.0000000000000E+00
234  2.3300000000000E+00  0.0000000000000E+00  0.0000000000000E+00
235  2.3400000000000E+00  0.0000000000000E+00  0.0000000000000E+00
236  2.3500000000000E+00  0.0000000000000E+00  0.0000000000000E+00
237  2.3600000000000E+00  0.0000000000000E+00  0.0000000000000E+00
238  2.3700000000000E+00  0.0000000000000E+00  0.0000000000000E+00
239  2.3800000000000E+00  0.0000000000000E+00  0.0000000000000E+00
240  2.3900000000000E+00  0.0000000000000E+00  0.0000000000000E+00
241  2.4000000000000E+00  0.0000000000000E+00  0.0000000000000E+00
242  2.4100000000000E+00  0.0000000000000E+00  0.0000000000000E+00
243  2.4200000000000E+00  0.0000000000000E+00  0.0000000000000E+00
244  2.4300000000000E+00  0.0000000000000E+00  0.0000000000000E+00
245  2.4400000000000E+00  0.0000000000000E+00  0.0000000000000E+00
246  2.4500000000000E+00  0.0000000000000E+00  0.0000000000000E+00
247  2.4600000000000E+00  0.0000000000000E+00  0.0000000000000E+00
248  2.4700000000000E+00  0.0000000000000E+00  0.0000000000000E+00
249  2.4800000000000E+00  0.0000000000000E+00  0.0000000000000E+00
250  2.4900000000000E+00  0.0000000000000E+00  0.0000000000000E+00
251  2.5000000000000E+00  0.0000000000000E+00  0.0000000000000E+00
252  2.5100000000000E+00  0.0000000000000E+00  0.0000000000000E+00
253  2.5200000000000E+00  0.0000000000000E+00  0.0000000000000E+00
254  2.5300000000000E+00  0.0000000000000E+00  0.0000000000000E+00
255  2.5400000000000E+00  0.0000000000000E+00  0.0000000000000E+00
256  2.5500000000000E+00  0.0000000000000E+00  0.0000000000000E+00
257  2.5600000000000E+00  0.0000000000000E+00  0.0000000000000E+00
258  2.5700000000000E+00  0.0000000000000E+00  0.0000000000000E+00
259  2.5800000000000E+00  0.0000000000000E+00  0.0000000000000E+00
260  2.5900000000000E+00  0.0000000000000E+00  0.0000000000000E+00
261  2.6000000000000E+00  0.0000000000000E+00  0.0000000000000E+00
262  2.6100000000000E+00  0.0000000000000E+00  0.0000000000000E+00
263  2.6200000000000E+00  0.0000000000000E+00  0.0000000000000E+00
264  2.6300000000000E+00  0.0000000000000E+00  0.0000000000000E+00
265  2.6400000000000E+00  0.0000000000000E+00  0.0000000000000E+00
266  2.6500000000000E+00  0.0000000000000E+00  0.0000000000000E+00
267  2.6600000000000E+00  0.0000000000000E+00  0.0000000000000E+00
268  2.6700000000000E+00  0.0000000000000E+00  0.0000000000000E+00
269  2.6800000000000E+00  0.0000000000000E+00  0.0000000000000E+00
270  2.6900000000000E+00  0.0000000000000E+00  0.0000000000000E+00
271  2.7000000000000E+00  0.0000000000000E+00  0.0000000000000E+00
272  2.7100000000000E+00  0.0000000000000E+00  0.0000000000000E+00
273  2.7200000000000E+00  0.0000000000000E+00  0.0000000000000E+00
274  2.7300000000000E+00  0.0000000000000E+00  0.0000000000000E+00
275  2.7400000000000E+00  0.0000000000000E+00  0.0000000000000E+00
276  2.7500000000000E+00  0.0000000000000E+00  0.0000000000000E+00
277  2.7600000000000E+00  0.0000000000000E+00  0.0000000000000E+00
278  2.7700000000000E+00  0.0000000000000E+00  0.0000000000000E+00
279  2.7800000000000E+00  0.0000000000000E+00  0.0000000000000E+00
280  2.7900000000000E+00  0.0000000000000E+00  0.0000000000000E+00
281  2.8000000000000E+00  0.0000000000000E+00  0.0000000000000E+00
282  2.8100000000000E+00  0.0000000000000E+00  0.0000000000000E+00
283  2.8200000000000E+00  0.0000000000000E+00  0.0000000000000E+00
284  2.8300000000000E+00  0.0000000000000E+00  0.0000000000000E+00
285  2.8400000000000E+00  0.0000000000000E+00  0.0000000000000E+00
286  2.8500000000000E+00  0.0000000000000E+00  0.0000000000000E+00
287  2.8600000000000E+00  0.0000000000000E+00  0.0000000000000E+00
288  2.8700000000000E+00  0.0000000000000E+00  0.0000000000000E+00
289  2.8800000000000E+00  0.0000000000000E+00  0.0000000000000E+00
290  2.8900000000000E+00  0.0000000000000E+00  0.0000000000000E+00
291  2.9000000000000E+00  0.0000000000000E+00  0.0000000000000E+00
292  2.9100000000000E+00  0.0000000000000E+00  0.0000000000000E+00
293  2.9200000000000E+00  0.0000000000000E+00  0.0000000000000E+00
294  2.9300000000000E+00  0.0000000000000E+00  0.0000000000000E+00
295  2.9400000000000E+00  0.0000000000000E+00  0.0000000000000E+00
296  2.9500000000000E+00  0.0000000000000E+00  0.0000000000000E+00
297  2.9600000000000E+00  0.0000000000000E+00  0.0000000000000E+00
298  2.9700000000000E+00  0.0000000000000E+00  0.0000000000000E+00
299  2.9800000000000E+00  0.0000000000000E+00  0.0000000000000E+00
300  2.9900000000000E+00  0.0000000000000E+00  0.0000000000000E+00
301  3.0000000000000E+00  0.0000000000000E+00  0.0000000000000E+00
302  3.0100000000000E+00  0.0000000000000E+00  0.0000000000000E+00
303  3.0200000000000E+00  0.0000000000000E+00  0.0000000000000E+00
304  3.0300000000000E+00  0.0000000000000E+00  0.0000000000000E+00
305  3.0400000000000E+00  0.0000000000000E+00  0.0000000000000E+00
306  3.0500000000000E+00  0.0000000000000E+00  0.0000000000000E+00
307  3.0600000000000E+00  0.0000000000000E+00  0.0000000000000E+00
308  3.0700000000000E+00  0.0000000000000E+00  0.0000000000000E+00
309  3.0800000000000E+00  0.0000000000000E+00  0.0000000000000E+00
310  3.0900000000000E+00  0.0000000000000E+00  0.0000000000000E+00
311  3.1000000000000E+00  0.0000000000000E+00  0.0000000000000E+00
312  3.1100000000000E+00  0.0000000000000E+00  0.0000000000000E+00
313  3.1200000000000E+00  0.0000000000000E+00  0.0000000000000E+00
314  3.1300000000000E+00  0.0000000000000E+00  0.0000000000000E+00
315  3.1400000000000E+00  0.0000000000000E+00  0.0000000000000E+00
316  3.1500000000000E+00  0.0000000000000E+00  0.0000000000000E+00
317  3.1600000000000E+00  0.0000000000000E+00  0.0000000000000E+00
318  3.1700000000000E+00  0.0000000000000E+00  0.0000000000000E+00
319  3.1800000000000E+00  0.0000000000000E+00  0.0000000000000E+00
320  3.1900000000000E+00  0.0000000000000E+00  0.0000000000000E+00
321  3.2000000000000E+00  0.0000000000000E+00  0.0000000000000E+00
322  3.2100000000000E+00  0.0000000000000E+00  0.0000000000000E+00
323  3.2200000000000E+00  0.0000000000000E+00  0.0000000000000E+00
324  3.2300000000000E+00  0.0000000000000E+00  0.0000000000000E+00
325  3.2400000000000E+00  0.0000000000000E+00  0.0000000000000E+00
326  3.2500000000000E+00  0.0000000000000E+00  0.0000000000000E+00
327  3.2600000000000E+00  0.0000000000000E+00  0.0000000000000E+00
328  3.2700000000000E+00  0.0000000000000E+00  0.0000000000000E+00
329  3.2800000000000E+00  0.0000000000000E+00  0.0000000000000E+00
330  3.2900000000000E+00  0.0000000000000E+00  0.0000000000000E+00
331  3.3000000000000E+00  0.0000000000000E+00  0.0000000000000E+00
332  3.3100000000000E+00  0.0000000000000E+00  0.0000000000000E+00
333  3.3200000000000E+00  0.0000000000000E+00  0.0000000000000E+00
334  3.3300000000000E+00  0.0000000000000E+00  0.0000000000000E+00
335  3.3400000000000E+00  0.0000000000000E+00  0.0000000000000E+00
336  3.3500000000000E+00  0.0000000000000E+00  0.0000000000000E+00
337  3.3600000000000E+00  0.0000000000000E+00  0.0000000000000E+00
338  3.3700000000000E+00  0.0000000000000E+00  0.0000000000000E+00
339  3.3800000000000E+00  0.0000000000000E+00  0.0000000000000E+00
340  3.3900000000000E+00  0.0000000000000E+00  0.0000000000000E+00
341  3.4000000000000E+00  0.0000000000000E+00  0.0000000000000E+00
342  3.4100000000000E+00  0.0000000000000E+00  0.0000000000000E+00
343  3.4200000000000E+00  0.0000000000000E+00  0.0000000000000E+00
344  3.4300000000000E+00  0.0000000000000E+00  0.0000000000000E+00
345  3.4400000000000E+00  0.0000000000000E+00  0.0000000000000E+00
346  3.4500000000000E+00  0.0000000000000E+00  0.0000000000000E+00
347  3.4600000000000E+00  0.0000000000000E+00  0.0000000000000E+00
348  3.4700000000000E+00  0.0000000000000E+00  0.0000000000000E+00
349  3.4800000000000E+00  0.0000000000000E+00  0.0000000000000E+00
350  3.4900000000000E+00  0.0000000000000E+00  0.0000000000000E+00
351  3.5000000000000E+00  0.0000000000000E+00  0.0000000000000E+00
352  3.5100000000000E+00  0.0000000000000E+00  0.0000000000000E+00
353  3.5200000000000E+00  0.0000000000000E+00  0.0000000000000E+00
354  3.5300000000000E+00  0.0000000000000E+00  0.0000000000000E+00
355  3.5400000000000E+00  0.0000000000000E+00  0.0000000000000E+00
356  3.5500000000000E+00  0.0000000000000E+00  0.0000000000000E+00
357  3.5600000000000E+00  0.0000000000000E+00  0.0000000000000E+00
358  3.5700000000000E+00  0.0000000000000E+00  0.0000000000000E+00
359  3.5800000000000E+00  0.0000000000000E+00  0.0000000000000E+00
360  3.5900000000000E+00  0.0000000000000E+00  0.0000000000000E+00
361  3.6000000000000E+00  0.0000000000000E+00  0.0000000000000E+00
362  3.6100000000000E+00  0.0000000000000E+00  0.0000000000000E+00
363  3.6200000000000E+00  0.0000000000000E+00  0.0000000000000E+00
364  3.6300000000000E+00  0.0000000000000E+00  0.0000000000000E+00
365  3.6400000000000E+00  0.0000000000000E+00  0.0000000000000E+00
366  3.6500000000000E+00  0.0000000000000E+00  0.0000000000000E+00
367  3.6600000000000E+00  0.0000000000000E+00  0.0000000000000E+00
368  3.6700000000000E+00  0.0000000000000E+00  0.0000000000000E+00
369  3.6800000000000E+00  0.0000000000000E+00  0.0000000000000E+00
370  3.6900000000000E+00  0.0000000000000E+00  0.0000000000000E+00
371  3.7000000000000E+00  0.0000000000000E+00  0.0000000000000E+00
372  3.7100000000000E+00  0.0000000000000E+00  0.0000000000000E+00
373  3.7200000000000E+00  0.0000000000000E+00  0.0000000000000E+00
374  3.7300000000000E+00  0.0000000000000E+00  0.0000000000000E+00
375  3.7400000000000E+00  0.0000000000000E+00  0.0000000000000E+00
376  3.7500000000000E+00  0.0000000000000E+00  0.0000000000000E+00
377  3.7600000000000E+00  0.0000000000000E+00  0.0000000000000E+00
378  3.7700000000000E+00  0.0000000000000E+00  0.0000000000000E+00
379  3.7800000000000E+00  0.0000000000000E+00  0.0000000000000E+00
380  3.7900000000000E+00  0.0000000000000E+00  0.0000000000000E+00
381  3.8000000000000E+00  0.0000000000000E+00  0.0000000000000E+00
382  3.8100000000000E+00  0.0000000000000E+00  0.0000000000000E+00
383  3.8200000000000E+00  0.0000000000000E+00  0.0000000000000E+00
384  3.8300000000000E+00  0.0000000000000E+00  0.0000000000000E+00
385  3.8400000000000E+00  0.0000000000000E+00  0.0000000000000E+00
386  3.8500000000000E+00  0.0000000000000E+00  0.0000000000000E+00
387  3.8600000000000E+00  0.0000000000000E+00  0.0000000000000E+00
388  3.8700000000000E+00  0.0000000000000E+00  0.0000000000000E+00
389  3.8800000000000E+00  0.0000000000000E+00  0.0000000000000E+00
390  3.8900000000000E+00  0.0000000000000E+00  0.0000000000000E+00
391  3.9000000000000E+00  0.0000000000000E+00  0.0000000000000E+00
392  3.9100000000000E+00  0.0000000000000E+00  0.0000000000000E+00
393  3.9200000000000E+00  0.0000000000000E+00  0.0000000000000E+00
394  3.9300000000000E+00  0.0000000000000E+00  0.0000000000000E+00
395  3.9400000000000E+00  0.0000000000000E+00  0.0000000000000E+00
396  3.9500000000000E+00  0.0000000000000E+00  0.0000000000000E+00
397  3.9600000000000E+00  0.0000000000000E+00  0.0000000000000E+00
398  3.9700000000000E+00  0.0000000000000E+00  0.0000000000000E+00
399  3.9800000000000E+00  0.0000000000000E+00  0.0000000000000E+00
400  3.9900000000000E+00  0.0000000000000E+00  0.0000000000000E+00
401  4.0000000000000E+00  0.0000000000000E+00  0.0000000000000E+00
402  4.0100000000000E+00  0.0000000000000E+00  0.0000000000000E+00
403  4.0200000000000E+00  0.0000000000000E+00  0.0000000000000E+00
404  4.0300000000000E+00  0.0000000000000E+00  0.0000000000000E+00
405  4.0400000000000E+00  0.0000000000000E+00  0.0000000000000E+00
406  4.0500000000000E+00  0.0000000000000E+00  0.0000000000000E+00
407  4.0600000000000E+00  0.0000000000000E+00  0.0000000000000E+00
408  4.0700000000000E+00  0.0000000000000E+00  0.0000000000000E+00
409  4.0800000000000E+00  0.0000000000000E+00  0.0000000000000E+00
410  4.0900000000000E+00  0.0000000000000E+00  0.0000000000000E+00
411  4.1000000000000E+00  0.0000000000000E+00  0.0000000000000E+00
412  4.1100000000000E+00  0.0000000000000E+00  0.0000000000000E+00
413  4.1200000000000E+00  0.0000000000000E+00  0.0000000000000E+00
414  4.1300000000000E+00  0.0000000000000E+00  0.0000000000000E+00
415  4.1400000000000E+00  0.0000000000000E+00  0.0000000000000E+00
416  4.1500000000000E+00  0.0000000000000E+00  0.0000000000000E+00
417  4.1600000000000E+00  0.0000000000000E+00  0.0000000000000E+00
418  4.1700000000000E+00  0.0000000000000E+00  0.0000000000000E+00
419  4.1800000000000E+00  0.0000000000000E+00  0.0000000000000E+00
420  4.1900000000000E+00  0.0000000000000E+00  0.0000000000000E+00
421  4.2000000000000E+00  0.0000000000000E+00  0.0000000000000E+00
422  4.2100000000000E+00  0.0000000000000E+00  0.0000000000000E+00
423  4.2200000000000E+00  0.0000000000000E+00  0.0000000000000E+00
424  4.2300000000000E+00  0.0000000000000E+00  0.0000000000000E+00
425  4.2400000000000E+00  0.0000000000000E+00  0.0000000000000E+00
426  4.2500000000000E+00  0.0000000000000E+00  0.0000000000000E+00
427  4.2600000000000E+00  0.0000000000000E+00  0.0000000000000E+00
428  4.2700000000000E+00  0.0000000000000E+00  0.0000000000000E+00
429  4.2800000000000E+00  0.0000000000000E+00  0.0000000000000E+00
430  4.2900000000000E+00  0.0000000000000E+00  0.0000000000000E+00
431  4.3000000000000E+00  0.0000000000000E+00  0.0000000000000E+00
432  4.3100000000000E+00  0.0000000000000E+00  0.0000000000000E+00
433  4.3200000000000E+00  0.0000000000000E+00  0.0000000000000E+00
434  4.3300000000000E+00  0.0000000000000E+00  0.0000000000000E+00
435  4.3400000000000E+00  0.0000000000000E+00  0.0000000000000E+00
436  4.3500000000000E+00  0.0000000000000E+00  0.0000000000000E+00
437  4.3600000000000E+00  0.0000000000000E+00  0.0000000000000E+00
438  4.3700000000000E+00  0.0000000000000E+00  0.0000000000000E+00
439  4.3800000000000E+00  0.0000000000000E+00  0.0000000000000E+00
440  4.3900000000000E+00  0.0000000000000E+00  0.0000000000000E+00
441  4.4000000000000E+00  0.0000000000000E+00  0.0000000000000E+00
442  4.4100000000000E+00  0.0000000000000E+00  0.0000000000000E+00
443  4.4200000000000E+00  0.0000000000000E+00  0.0000000000000E+00
444  4.4300000000000E+00  0.0000000000000E+00  0.0000000000000E+00