P     ONCVPSP-4.0.1  r_core=   2.58392   1.72035
     15.0000      5.0000      200312    zatom,zion,pspd
     8      11   1     4   600     0    pspcod,pspxc,lmax,lloc,mmax,r2well
  5.99000000  0.00000000  0.00000000    rchrg fchrg qchrg
     2     2     0     0     0    nproj
     1     1           extension_switch
   0                         8.4494282433413E+00  5.4826132251506E-01
     1  0.0000000000000E+00  3.2456315413043E-11 -6.0824789649416E-11
     2  1.0000000000000E-02  3.3810129619238E-02 -3.8613413004240E-02
     3  2.0000000000000E-02  6.7623089553582E-02 -7.7151454693682E-02
     4  3.0000000000000E-02  1.0144150213341E-01 -1.1553870792406E-01
     5  4.0000000000000E-02  1.3526757515332E-01 -1.5369966572783E-01
     6  5.0000000000000E-02  1.6910289818017E-01 -1.9155869097625E-01
     7  6.0000000000000E-02  2.0294824312926E-01 -2.2903998148670E-01
     8  7.0000000000000E-02  2.3680337049317E-01 -2.6606754231870E-01
     9  8.0000000000000E-02  2.7066684257538E-01 -3.0256516694125E-01
    10  9.0000000000000E-02  3.0453584504035E-01 -3.3845642887852E-01
    11  1.0000000000000E-01  3.3840601804415E-01 -3.7366468535189E-01
    12  1.1000000000000E-01  3.7227129815434E-01 -4.0811309433321E-01
    13  1.2000000000000E-01  4.0612377220580E-01 -4.4172464630848E-01
    14  1.3000000000000E-01  4.3995354417008E-01 -4.7442221192341E-01
    15  1.4000000000000E-01  4.7374861604078E-01 -5.0612860654331E-01
    16  1.5000000000000E-01  5.0749478365630E-01 -5.3676667260975E-01
    17  1.6000000000000E-01  5.4117554829437E-01 -5.6625938051819E-01
    18  1.7000000000000E-01  5.7477204478142E-01 -5.9452994857241E-01
    19  1.8000000000000E-01  6.0826298676321E-01 -6.2150198239739E-01
    20  1.9000000000000E-01  6.4162462968303E-01 -6.4709963401065E-01
    21  2.0000000000000E-01  6.7483075190985E-01 -6.7124778056595E-01
    22  2.1000000000000E-01  7.0785265435210E-01 -6.9387222259297E-01
    23  2.2000000000000E-01  7.4065917878342E-01 -7.1489990136391E-01
    24  2.3000000000000E-01  7.7321674499606E-01 -7.3425913482334E-01
    25  2.4000000000000E-01  8.0548940678509E-01 -7.5187987132354E-01
    26  2.5000000000000E-01  8.3743892665420E-01 -7.6769396021450E-01
    27  2.6000000000000E-01  8.6902486902087E-01 -7.8163543814677E-01
    28  2.7000000000000E-01  9.0020471158675E-01 -7.9364082975880E-01
    29  2.8000000000000E-01  9.3093397442811E-01 -8.0364946123869E-01
    30  2.9000000000000E-01  9.6116636625245E-01 -8.1160378507505E-01
    31  3.0000000000000E-01  9.9085394716035E-01 -8.1744971414386E-01
    32  3.1000000000000E-01  1.0199473071486E+00 -8.2113696312004E-01
    33  3.2000000000000E-01  1.0483957594904E+00 -8.2261939505321E-01
    34  3.3000000000000E-01  1.0761475480325E+00 -8.2185537081087E-01
    35  3.4000000000000E-01  1.1031500673580E+00 -8.1880809896605E-01
    36  3.5000000000000E-01  1.1293500946795E+00 -8.1344598359681E-01
    37  3.6000000000000E-01  1.1546940322421E+00 -8.0574296736599E-01
    38  3.7000000000000E-01  1.1791281589488E+00 -7.9567886717002E-01
    39  3.8000000000000E-01  1.2025988898468E+00 -7.8323969957866E-01
    40  3.9000000000000E-01  1.2250530420567E+00 -7.6841799324003E-01
    41  4.0000000000000E-01  1.2464381056729E+00 -7.5121308539467E-01
    42  4.1000000000000E-01  1.2667025181148E+00 -7.3163139962914E-01
    43  4.2000000000000E-01  1.2857959403778E+00 -7.0968670200750E-01
    44  4.3000000000000E-01  1.3036695335953E+00 -6.8540033274306E-01
    45  4.4000000000000E-01  1.3202762343091E+00 -6.5880141062003E-01
    46  4.5000000000000E-01  1.3355710268304E+00 -6.2992700743760E-01
    47  4.6000000000000E-01  1.3495112110689E+00 -5.9882228983607E-01
    48  4.7000000000000E-01  1.3620566642171E+00 -5.6554062596811E-01
    49  4.8000000000000E-01  1.3731700946860E+00 -5.3014365460403E-01
    50  4.9000000000000E-01  1.3828172867154E+00 -4.9270131440409E-01
    51  5.0000000000000E-01  1.3909673341127E+00 -4.5329183125514E-01
    52  5.1000000000000E-01  1.3975928616139E+00 -4.1200166175184E-01
    53  5.2000000000000E-01  1.4026702324114E+00 -3.6892539110439E-01
    54  5.3000000000000E-01  1.4061797404496E+00 -3.2416558397444E-01
    55  5.4000000000000E-01  1.4081057861559E+00 -2.7783258697770E-01
    56  5.5000000000000E-01  1.4084370343490E+00 -2.3004428184536E-01
    57  5.6000000000000E-01  1.4071665531465E+00 -1.8092578850544E-01
    58  5.7000000000000E-01  1.4042919327841E+00 -1.3060911762920E-01
    59  5.8000000000000E-01  1.3998153833553E+00 -7.9232772485627E-02
    60  5.9000000000000E-01  1.3937438105789E+00 -2.6941300256234E-02
    61  6.0000000000000E-01  1.3860888688162E+00  2.6115206714761E-02
    62  6.1000000000000E-01  1.3768669906684E+00  7.9781658929009E-02
    63  6.2000000000000E-01  1.3660993926078E+00  1.3389856585457E-01
    64  6.3000000000000E-01  1.3538120562183E+00  1.8830267866390E-01
    65  6.4000000000000E-01  1.3400356847496E+00  2.4282767773992E-01
    66  6.5000000000000E-01  1.3248056348210E+00  2.9730490274348E-01
    67  6.6000000000000E-01  1.3081618232459E+00  3.5156412267218E-01
    68  6.7000000000000E-01  1.2901486090829E+00  4.0543434297841E-01
    69  6.8000000000000E-01  1.2708146511613E+00  4.5874464645057E-01
    70  6.9000000000000E-01  1.2502127414647E+00  5.1132506419980E-01
    71  7.0000000000000E-01  1.2283996149013E+00  5.6300747273508E-01
    72  7.1000000000000E-01  1.2054357361244E+00  6.1362651275692E-01
    73  7.2000000000000E-01  1.1813850642111E+00  6.6302052495043E-01
    74  7.3000000000000E-01  1.1563147961413E+00  7.1103249771943E-01
    75  7.4000000000000E-01  1.1302950901570E+00  7.5751102147211E-01
    76  7.5000000000000E-01  1.1033987702164E+00  8.0231124374860E-01
    77  7.6000000000000E-01  1.0757010128837E+00  8.4529581917297E-01
    78  7.7000000000000E-01  1.0472790181275E+00  8.8633584791809E-01
    79  7.8000000000000E-01  1.0182116656176E+00  9.2531179609222E-01
    80  7.9000000000000E-01  9.8857915823040E-01  9.6211439119338E-01
    81  8.0000000000000E-01  9.5846265458538E-01  9.9664548553203E-01
    82  8.1000000000000E-01  9.2794389253771E-01  1.0288188802956E+00
    83  8.2000000000000E-01  8.9710480565598E-01  1.0585611027213E+00
    84  8.3000000000000E-01  8.6602713480389E-01  1.0858121286586E+00
    85  8.4000000000000E-01  8.3479203703159E-01  1.1105260426351E+00
    86  8.5000000000000E-01  8.0347969406030E-01  1.1326716274018E+00
    87  8.6000000000000E-01  7.7216892271379E-01  1.1522328748110E+00
    88  8.7000000000000E-01  7.4093678971240E-01  1.1692094097891E+00
    89  8.8000000000000E-01  7.0985823329862E-01  1.1836168190922E+00
    90  8.9000000000000E-01  6.7900569420794E-01  1.1954868764922E+00
    91  9.0000000000000E-01  6.4844875853453E-01  1.2048676560166E+00
    92  9.1000000000000E-01  6.1825381506811E-01  1.2118235248746E+00
    93  9.2000000000000E-01  5.8848372969563E-01  1.2164350077312E+00
    94  9.3000000000000E-01  5.5919753947015E-01  1.2187985140514E+00
    95  9.4000000000000E-01  5.3045016894800E-01  1.2190259203159E+00
    96  9.5000000000000E-01  5.0229217138515E-01  1.2172439990239E+00
    97  9.6000000000000E-01  4.7476949736453E-01  1.2135936865279E+00
    98  9.7000000000000E-01  4.4792329339706E-01  1.2082291819086E+00
    99  9.8000000000000E-01  4.2178973300212E-01  1.2013168692813E+00
   100  9.9000000000000E-01  3.9639988272620E-01  1.1930340561326E+00
   101  1.0000000000000E+00  3.7177960550408E-01  1.1835675205198E+00
   102  1.0100000000000E+00  3.4794950370296E-01  1.1731118602189E+00
   103  1.0200000000000E+00  3.2492490411859E-01  1.1618676371856E+00
   104  1.0300000000000E+00  3.0271588711319E-01  1.1500393109896E+00
   105  1.0400000000000E+00  2.8132736199777E-01  1.1378329552034E+00
   106  1.0500000000000E+00  2.6075919066762E-01  1.1254537510637E+00
   107  1.0600000000000E+00  2.4100636139881E-01  1.1131032530788E+00
   108  1.0700000000000E+00  2.2205921460638E-01  1.1009764216301E+00
   109  1.0800000000000E+00  2.0390372246031E-01  1.0892584213498E+00
   110  1.0900000000000E+00  1.8652182066023E-01  1.0781211326071E+00
   111  1.1000000000000E+00  1.6989173715974E-01  1.0677185855135E+00
   112  1.1100000000000E+00  1.5398710387025E-01  1.0581619277332E+00
   113  1.1200000000000E+00  1.3877641523651E-01  1.0494860294835E+00
   114  1.1300000000000E+00  1.2422521286509E-01  1.0416479167921E+00
   115  1.1400000000000E+00  1.1029861203279E-01  1.0345362041819E+00
   116  1.1500000000000E+00  9.6963510946853E-02  1.0279853524567E+00
   117  1.1600000000000E+00  8.4190292045326E-02  1.0217928501475E+00
   118  1.1700000000000E+00  7.1953914423298E-02  1.0157372488444E+00
   119  1.1800000000000E+00  6.0234388531762E-02  1.0095951482731E+00
   120  1.1900000000000E+00  4.9016701995321E-02  1.0031556486283E+00
   121  1.2000000000000E+00  3.8290318311649E-02  9.9623135631083E-01
   122  1.2100000000000E+00  2.8048393888319E-02  9.8866561213022E-01
   123  1.2200000000000E+00  1.8286856440371E-02  9.8033611394711E-01
   124  1.2300000000000E+00  9.0034663425221E-03  9.7115545849386E-01
   125  1.2400000000000E+00  1.9695089252768E-04  9.6106931861990E-01
   126  1.2500000000000E+00 -8.1337324467128E-03  9.5005301701008E-01
   127  1.2600000000000E+00 -1.5989977835462E-02  9.3810719621148E-01
   128  1.2700000000000E+00 -2.3373955398804E-02  9.2525315934755E-01
   129  1.2800000000000E+00 -3.0288891322569E-02  9.1152830706739E-01
   130  1.2900000000000E+00 -3.6739225653416E-02  8.9698195174896E-01
   131  1.3000000000000E+00 -4.2730673016915E-02  8.8167166571643E-01
   132  1.3100000000000E+00 -4.8270210912491E-02  8.6566022532961E-01
   133  1.3200000000000E+00 -5.3366017489762E-02  8.4901314609232E-01
   134  1.3300000000000E+00 -5.8027376908219E-02  8.3179676214715E-01
   135  1.3400000000000E+00 -6.2264566398336E-02  8.1407678170453E-01
   136  1.3500000000000E+00 -6.6088735514566E-02  7.9591724313902E-01
   137  1.3600000000000E+00 -6.9511784631190E-02  7.7737978983095E-01
   138  1.3700000000000E+00 -7.2546248338497E-02  7.5852321552892E-01
   139  1.3800000000000E+00 -7.5205185135232E-02  7.3940318394499E-01
   140  1.3900000000000E+00 -7.7502076799894E-02  7.2007211638488E-01
   141  1.4000000000000E+00 -7.9450736647027E-02  7.0057917466033E-01
   142  1.4100000000000E+00 -8.1065227291198E-02  6.8097032286940E-01
   143  1.4200000000000E+00 -8.2359787335756E-02  6.6128843996854E-01
   144  1.4300000000000E+00 -8.3348766331572E-02  6.4157346457679E-01
   145  1.4400000000000E+00 -8.4046567259375E-02  6.2186255845493E-01
   146  1.4500000000000E+00 -8.4467595732525E-02  6.0219027834423E-01
   147  1.4600000000000E+00 -8.4626215145828E-02  5.8258874894733E-01
   148  1.4700000000000E+00 -8.4536707029315E-02  5.6308783181522E-01
   149  1.4800000000000E+00 -8.4213235942834E-02  5.4371528680128E-01
   150  1.4900000000000E+00 -8.3669818292610E-02  5.2449692363228E-01
   151  1.5000000000000E+00 -8.2920294542159E-02  5.0545674238562E-01
   152  1.5100000000000E+00 -8.1978304348096E-02  4.8661706218264E-01
   153  1.5200000000000E+00 -8.0857264208909E-02  4.6799863782128E-01
   154  1.5300000000000E+00 -7.9570347295565E-02  4.4962076470846E-01
   155  1.5400000000000E+00 -7.8130465165494E-02  4.3150137241586E-01
   156  1.5500000000000E+00 -7.6550251127210E-02  4.1365710758370E-01
   157  1.5600000000000E+00 -7.4842045053399E-02  3.9610340684791E-01
   158  1.5700000000000E+00 -7.3017879499545E-02  3.7885456079303E-01
   159  1.5800000000000E+00 -7.1089466989449E-02  3.6192376962439E-01
   160  1.5900000000000E+00 -6.9068188384354E-02  3.4532319158392E-01
   161  1.6000000000000E+00 -6.6965082268675E-02  3.2906398502364E-01
   162  1.6100000000000E+00 -6.4790835288234E-02  3.1315634484179E-01
   163  1.6200000000000E+00 -6.2555773425863E-02  2.9760953430649E-01
   164  1.6300000000000E+00 -6.0269854177555E-02  2.8243191286900E-01
   165  1.6400000000000E+00 -5.7942659632561E-02  2.6763096083947E-01
   166  1.6500000000000E+00 -5.5583390435545E-02  2.5321330140198E-01
   167  1.6600000000000E+00 -5.3200860647364E-02  2.3918472073365E-01
   168  1.6700000000000E+00 -5.0803493501658E-02  2.2555018669854E-01
   169  1.6800000000000E+00 -4.8399318049911E-02  2.1231386647913E-01
   170  1.6900000000000E+00 -4.5995966714888E-02  1.9947914371667E-01
   171  1.7000000000000E+00 -4.3600673748084E-02  1.8704863544617E-01
   172  1.7100000000000E+00 -4.1220274576012E-02  1.7502420898389E-01
   173  1.7200000000000E+00 -3.8861206056804E-02  1.6340699924553E-01
   174  1.7300000000000E+00 -3.6529507615241E-02  1.5219742645546E-01
   175  1.7400000000000E+00 -3.4230823266350E-02  1.4139521458932E-01
   176  1.7500000000000E+00 -3.1970404487989E-02  1.3099941043354E-01
   177  1.7600000000000E+00 -2.9753113947552E-02  1.2100840354956E-01
   178  1.7700000000000E+00 -2.7583430050255E-02  1.1141994709051E-01
   179  1.7800000000000E+00 -2.5465452271284E-02  1.0223117938454E-01
   180  1.7900000000000E+00 -2.3402907264913E-02  9.3438646470808E-02
   181  1.8000000000000E+00 -2.1399155696186E-02  8.5038325369889E-02
   182  1.8100000000000E+00 -1.9457199777724E-02  7.7025648194097E-02
   183  1.8200000000000E+00 -1.7579691457924E-02  6.9395526904601E-02
   184  1.8300000000000E+00 -1.5768941225448E-02  6.2142378685526E-02
   185  1.8400000000000E+00 -1.4026927499306E-02  5.5260151948491E-02
   186  1.8500000000000E+00 -1.2355306543996E-02  4.8742352738226E-02
   187  1.8600000000000E+00 -1.0755422868263E-02  4.2582071476819E-02
   188  1.8700000000000E+00 -9.2283200744428E-03  3.6772010054122E-02
   189  1.8800000000000E+00 -7.7747521029409E-03  3.1304509091638E-02
   190  1.8900000000000E+00 -6.3951948153535E-03  2.6171575206216E-02
   191  1.9000000000000E+00 -5.0898578947144E-03  2.1364908377442E-02
   192  1.9100000000000E+00 -3.8586969925806E-03  1.6875929136074E-02
   193  1.9200000000000E+00 -2.7014260959540E-03  1.2695805631157E-02
   194  1.9300000000000E+00 -1.6175300566253E-03  8.8154803947519E-03
   195  1.9400000000000E+00 -6.0627724066795E-04  5.2256967373910E-03
   196  1.9500000000000E+00  3.3326773163359E-04  1.9170248009334E-03
   197  1.9600000000000E+00  1.2022312090428E-03 -1.1201128949292E-03
   198  1.9700000000000E+00  2.0019177401082E-03 -3.8954165066677E-03
   199  1.9800000000000E+00  2.7337973341812E-03 -6.4186844602266E-03
   200  1.9900000000000E+00  3.3994927930703E-03 -8.6997896645495E-03
   201  2.0000000000000E+00  4.0007671601971E-03 -1.0748656479136E-02
   202  2.0100000000000E+00  4.5395113095392E-03 -1.2575238395174E-02
   203  2.0200000000000E+00  5.0177316989558E-03 -1.4189496415932E-02
   204  2.0300000000000E+00  5.4375383363153E-03 -1.5601378308168E-02
   205  2.0400000000000E+00  5.8011329586046E-03 -1.6820798549242E-02
   206  2.0500000000000E+00  6.1107974767334E-03 -1.7857619190566E-02
   207  2.0600000000000E+00  6.3688826899697E-03 -1.8721631511383E-02
   208  2.0700000000000E+00  6.5777972901843E-03 -1.9422538466296E-02
   209  2.0800000000000E+00  6.7399971837648E-03 -1.9969937996312E-02
   210  2.0900000000000E+00  6.8579751474709E-03 -2.0373307198340E-02
   211  2.1000000000000E+00  6.9342508218846E-03 -2.0641987269733E-02
   212  2.1100000000000E+00  6.9713610601268E-03 -2.0785169256386E-02
   213  2.1200000000000E+00  6.9718506466154E-03 -2.0811880621067E-02
   214  2.1300000000000E+00  6.9382633932960E-03 -2.0730972607801E-02
   215  2.1400000000000E+00  6.8731336094979E-03 -2.0551108309363E-02
   216  2.1500000000000E+00  6.7789779650389E-03 -2.0280751519907E-02
   217  2.1600000000000E+00  6.6582877373463E-03 -1.9928156263616E-02
   218  2.1700000000000E+00  6.5135214497910E-03 -1.9501357013557E-02
   219  2.1800000000000E+00  6.3470979075871E-03 -1.9008159619667E-02
   220  2.1900000000000E+00  6.1613896148867E-03 -1.8456132815022E-02
   221  2.2000000000000E+00  5.9587165760988E-03 -1.7852600315587E-02
   222  2.2100000000000E+00  5.7413404829718E-03 -1.7204633524265E-02
   223  2.2200000000000E+00  5.5114592814556E-03 -1.6519044807669E-02
   224  2.2300000000000E+00  5.2712020981681E-03 -1.5802381224547E-02
   225  2.2400000000000E+00  5.0226245301673E-03 -1.5060918756214E-02
   226  2.2500000000000E+00  4.7677042900248E-03 -1.4300657015628E-02
   227  2.2600000000000E+00  4.5083371947596E-03 -1.3527314395343E-02
   228  2.2700000000000E+00  4.2463334784205E-03 -1.2746323561520E-02
   229  2.2800000000000E+00  3.9834144328254E-03 -1.1962827373517E-02
   230  2.2900000000000E+00  3.7212093541795E-03 -1.1181675134011E-02
   231  2.3000000000000E+00  3.4612527818510E-03 -1.0407419136479E-02
   232  2.3100000000000E+00  3.2049820284956E-03 -9.6443115668009E-03
   233  2.3200000000000E+00  2.9537349754584E-03 -8.8963016519167E-03
   234  2.3300000000000E+00  2.7087481230227E-03 -8.1670330557133E-03
   235  2.3400000000000E+00  2.4711548818433E-03 -7.4598415038010E-03
   236  2.3500000000000E+00  2.2419841034554E-03 -6.7777526958737E-03
   237  2.3600000000000E+00  2.0221588130519E-03 -6.1234803400496E-03
   238  2.3700000000000E+00  1.8124951392437E-03 -5.4994243504164E-03
   239  2.3800000000000E+00  1.6137014714921E-03 -4.9076694848305E-03
   240  2.3900000000000E+00  1.4263777235185E-03 -4.3499837071586E-03
   241  2.4000000000000E+00  1.2510147768422E-03 -3.8278168336121E-03
   242  2.4100000000000E+00  1.0879955102766E-03 -3.3423068208727E-03
   243  2.4200000000000E+00  9.3758710921631E-04 -2.8942405758057E-03
   244  2.4300000000000E+00  7.9995280216758E-04 -2.4841141023341E-03
   245  2.4400000000000E+00  6.7515384541305E-04 -2.1121413727577E-03
   246  2.4500000000000E+00  5.6313100087865E-04 -1.7781617750500E-03
   247  2.4600000000000E+00  4.6335838019511E-04 -1.4798549394689E-03
   248  2.4700000000000E+00  3.7446879370931E-04 -1.2108060539485E-03
   249  2.4800000000000E+00  2.9597467862829E-04 -9.6934450141232E-04
   250  2.4900000000000E+00  2.2795331860748E-04 -7.5693685317237E-04
   251  2.5000000000000E+00  1.7013636225214E-04 -5.7352158484265E-04
   252  2.5100000000000E+00  1.2214875684542E-04 -4.1872751730843E-04
   253  2.5200000000000E+00  8.3472629655348E-05 -2.9168484741920E-04
   254  2.5300000000000E+00  5.3450102113262E-05 -1.9103603463286E-04
   255  2.5400000000000E+00  3.1279247961609E-05 -1.1491321132604E-04
   256  2.5500000000000E+00  1.6014456947916E-05 -6.0929961588307E-05
   257  2.5600000000000E+00  6.5544366466939E-06 -2.6108989957841E-05
   258  2.5700000000000E+00  1.7189252864430E-06 -7.3267019728276E-06
   259  2.5800000000000E+00  1.0155296414672E-07 -4.7853407988044E-07
   260  2.5900000000000E+00 -9.1164382517992E-08  4.8855755328435E-07
   261  2.6000000000000E+00  4.7384700936856E-09 -2.2943671880633E-08
   262  2.61  0. -0.
   263  2.62 -0.  0.
   264  2.63 -0.  0.
   265  2.64  0. -0.
   266  2.65  0.  0.
   267  2.66  0.  0.
   268  2.67  0.  0.
   269  2.68  0.  0.
   270  2.69  0.  0.
   271  2.70  0.  0.
   272  2.71  0.  0.
   273  2.72  0.  0.
   274  2.73  0.  0.
   275  2.74  0.  0.
   276  2.75  0.  0.
   277  2.76  0.  0.
   278  2.77  0.  0.
   279  2.78  0.  0.
   280  2.79  0.  0.
   281  2.80  0.  0.
   282  2.81  0.  0.
   283  2.82  0.  0.
   284  2.83  0.  0.
   285  2.84  0.  0.
   286  2.85  0.  0.
   287  2.86  0.  0.
   288  2.87  0.  0.
   289  2.88  0.  0.
   290  2.89  0.  0.
   291  2.90  0.  0.
   292  2.91  0.  0.
   293  2.92  0.  0.
   294  2.93  0.  0.
   295  2.94  0.  0.
   296  2.95  0.  0.
   297  2.96  0.  0.
   298  2.97  0.  0.
   299  2.98  0.  0.
   300  2.99  0.  0.
   301  3.00  0.  0.
   302  3.01  0.  0.
   303  3.02  0.  0.
   304  3.03  0.  0.
   305  3.04  0.  0.
   306  3.05  0.  0.
   307  3.06  0.  0.
   308  3.07  0.  0.
   309  3.08  0.  0.
   310  3.09  0.  0.
   311  3.10  0.  0.
   312  3.11  0.  0.
   313  3.12  0.  0.
   314  3.13  0.  0.
   315  3.14  0.  0.
   316  3.15  0.  0.
   317  3.16  0.  0.
   318  3.17  0.  0.
   319  3.18  0.  0.
   320  3.19  0.  0.
   321  3.20  0.  0.
   322  3.21  0.  0.
   323  3.22  0.  0.
   324  3.23  0.  0.
   325  3.24  0.  0.
   326  3.25  0.  0.
   327  3.26  0.  0.
   328  3.27  0.  0.
   329  3.28  0.  0.
   330  3.29  0.  0.
   331  3.30  0.  0.
   332  3.31  0.  0.
   333  3.32  0.  0.
   334  3.33  0.  0.
   335  3.34  0.  0.
   336  3.35  0.  0.
   337  3.36  0.  0.
   338  3.37  0.  0.
   339  3.38  0.  0.
   340  3.39  0.  0.
   341  3.40  0.  0.
   342  3.41  0.  0.
   343  3.42  0.  0.
   344  3.43  0.  0.
   345  3.44  0.  0.
   346  3.45  0.  0.
   347  3.46  0.  0.
   348  3.47  0.  0.
   349  3.48  0.  0.
   350  3.49  0.  0.
   351  3.50  0.  0.
   352  3.51  0.  0.
   353  3.52  0.  0.
   354  3.53  0.  0.
   355  3.54  0.  0.
   356  3.55  0.  0.
   357  3.56  0.  0.
   358  3.57  0.  0.
   359  3.58  0.  0.
   360  3.59  0.  0.
   361  3.60  0.  0.
   362  3.61  0.  0.
   363  3.62  0.  0.
   364  3.63  0.  0.
   365  3.64  0.  0.
   366  3.65  0.  0.
   367  3.66  0.  0.
   368  3.67  0.  0.
   369  3.68  0.  0.
   370  3.69  0.  0.
   371  3.70  0.  0.
   372  3.71  0.  0.
   373  3.72  0.  0.
   374  3.73  0.  0.
   375  3.74  0.  0.
   376  3.75  0.  0.
   377  3.76  0.  0.
   378  3.77  0.  0.
   379  3.78  0.  0.
   380  3.79  0.  0.
   381  3.80  0.  0.
   382  3.81  0.  0.
   383  3.82  0.  0.
   384  3.83  0.  0.
   385  3.84  0.  0.
   386  3.85  0.  0.
   387  3.86  0.  0.
   388  3.87  0.  0.
   389  3.88  0.  0.
   390  3.89  0.  0.
   391  3.90  0.  0.
   392  3.91  0.  0.
   393  3.92  0.  0.
   394  3.93  0.  0.
   395  3.94  0.  0.
   396  3.95  0.  0.
   397  3.96  0.  0.
   398  3.97  0.  0.
   399  3.98  0.  0.
   400  3.99  0.  0.
   401  4.00  0.  0.
   402  4.01  0.  0.
   403  4.02  0.  0.
   404  4.03  0.  0.
   405  4.04  0.  0.
   406  4.05  0.  0.
   407  4.06  0.  0.
   408  4.07  0.  0.
   409  4.08  0.  0.
   410  4.09  0.  0.
   411  4.10  0.  0.
   412  4.11  0.  0.
   413  4.12  0.  0.
   414  4.13  0.  0.
   415  4.14  0.  0.
   416  4.15  0.  0.
   417  4.16  0.  0.
   418  4.17  0.  0.
   419  4.18  0.  0.
   420  4.19  0.  0.
   421  4.20  0.  0.
   422  4.21  0.  0.
   423  4.22  0.  0.
   424  4.23  0.  0.
   425  4.24  0.  0.
   426  4.25  0.  0.
   427  4.26  0.  0.
   428  4.27  0.  0.
   429  4.28  0.  0.
   430  4.29  0.  0.
   431  4.30  0.  0.
   432  4.31  0.  0.
   433  4.32  0.  0.
   434  4.33  0.  0.
   435  4.34  0.  0.
   436  4.35  0.  0.
   437  4.36  0.  0.
   438  4.37  0.  0.
   439  4.38  0.  0.
   440  4.39  0.  0.
   441  4.40  0.  0.
   442  4.41  0.  0.
   443  4.42  0.  0.
   444  4.43  0.  0.
   445  4.44  0.  0.
   446  4.45  0.  0.
   447  4.46  0.  0.
   448  4.47  0.  0.
   449  4.48  0.  0.
   450  4.49  0.  0.
   451  4.50  0.  0.
   452  4.51  0.  0.
   453  4.52  0.  0.
   454  4.53  0.  0.
   455  4.54  0.  0.
   456  4.55  0.  0.
   457  4.56  0.  0.
   458  4.57  0.  0.
   459  4.58  0.  0.
   460  4.59  0.  0.
   461  4.60  0.  0.
   462  4.61  0.  0.
   463  4.62  0.  0.
   464  4.63  0.  0.
   465  4.64  0.  0.
   466  4.65  0.  0.
   467  4.66  0.  0.
   468  4.67  0.  0.
   469  4.68  0.  0.
   470  4.69  0.  0.
   471  4.70  0.  0.
   472  4.71  0.  0.
   473  4.72  0.  0.
   474  4.73  0.  0.
   475  4.74  0.  0.
   476  4.75  0.  0.
   477  4.76  0.  0.
   478  4.77  0.  0.
   479  4.78  0.  0.
   480  4.79  0.  0.
   481  4.80  0.  0.
   482  4.81  0.  0.
   483  4.82  0.  0.
   484  4.83  0.  0.
   485  4.84  0.  0.
   486  4.85  0.  0.
   487  4.86  0.  0.
   488  4.87  0.  0.
   489  4.88  0.  0.
   490  4.89  0.  0.
   491  4.90  0.  0.
   492  4.91  0.  0.
   493  4.92  0.  0.
   494  4.93  0.  0.
   495  4.94  0.  0.
   496  4.95  0.  0.
   497  4.96  0.  0.
   498  4.97  0.  0.
   499  4.98  0.  0.
   500  4.99  0.  0.
   501  5.00  0.  0.
   502  5.01  0.  0.
   503  5.02  0.  0.
   504  5.03  0.  0.
   505  5.04  0.  0.
   506  5.05  0.  0.
   507  5.06  0.  0.
   508  5.07  0.  0.
   509  5.08  0.  0.
   510  5.09  0.  0.
   511  5.10  0.  0.
   512  5.11  0.  0.
   513  5.12  0.  0.
   514  5.13  0.  0.
   515  5.14  0.  0.
   516  5.15  0.  0.
   517  5.16  0.  0.
   518  5.17  0.  0.
   519  5.18  0.  0.
   520  5.19  0.  0.
   521  5.20  0.  0.
   522  5.21  0.  0.
   523  5.22  0.  0.
   524  5.23  0.  0.
   525  5.24  0.  0.
   526  5.25  0.  0.
   527  5.26  0.  0.
   528  5.27  0.  0.
   529  5.28  0.  0.
   530  5.29  0.  0.
   531  5.30  0.  0.
   532  5.31  0.  0.
   533  5.32  0.  0.
   534  5.33  0.  0.
   535  5.34  0.  0.
   536  5.35  0.  0.
   537  5.36  0.  0.
   538  5.37  0.  0.
   539  5.38  0.  0.
   540  5.39  0.  0.
   541  5.40  0.  0.
   542  5.41  0.  0.
   543  5.42  0.  0.
   544  5.43  0.  0.
   545  5.44  0.  0.
   546  5.45  0.  0.
   547  5.46  0.  0.
   548  5.47  0.  0.
   549  5.48  0.  0.
   550  5.49  0.  0.
   551  5.50  0.  0.
   552  5.51  0.  0.
   553  5.52  0.  0.
   554  5.53  0.  0.
   555  5.54  0.  0.
   556  5.55  0.  0.
   557  5.56  0.  0.
   558  5.57  0.  0.
   559  5.58  0.  0.
   560  5.59  0.  0.
   561  5.60  0.  0.
   562  5.61  0.  0.
   563  5.62  0.  0.
   564  5.63  0.  0.
   565  5.64  0.  0.
   566  5.65  0.  0.
   567  5.66  0.  0.
   568  5.67  0.  0.
   569  5.68  0.  0.
   570  5.69  0.  0.
   571  5.70  0.  0.
   572  5.71  0.  0.
   573  5.72  0.  0.
   574  5.73  0.  0.
   575  5.74  0.  0.
   576  5.75  0.  0.
   577  5.76  0.  0.
   578  5.77  0.  0.
   579  5.78  0.  0.
   580  5.79  0.  0.
   581  5.80  0.  0.
   582  5.81  0.  0.
   583  5.82  0.  0.
   584  5.83  0.  0.
   585  5.84  0.  0.
   586  5.85  0.  0.
   587  5.86  0.  0.
   588  5.87  0.  0.
   589  5.88  0.  0.
   590  5.89  0.  0.
   591  5.90  0.  0.
   592  5.91  0.  0.
   593  5.92  0.  0.
   594  5.93  0.  0.
   595  5.94  0.  0.
   596  5.95  0.  0.
   597  5.96  0.  0.
   598  5.97  0.  0.
   599  5.98  0.  0.
   600  5.99  0.  0.
   1                         5.4785918278777E+00  8.1556591948165E-01
     1  0.0000000000000E+00 -2.5962625330861E-09  6.9002125679951E-09
     2  1.0000000000000E-02  1.9768470099742E-04  1.5035923743908E-03
     3  2.0000000000000E-02  7.9569050980325E-04  5.9971621398615E-03
     4  3.0000000000000E-02  1.8087814852195E-03  1.3429336005163E-02
     5  4.0000000000000E-02  3.2612623423981E-03  2.3715317161216E-02
     6  5.0000000000000E-02  5.1865305328635E-03  3.6738109602485E-02
     7  6.0000000000000E-02  7.6264593825051E-03  5.2350205009537E-02
     8  7.0000000000000E-02  1.0630622321851E-02  7.0375705533000E-02
     9  8.0000000000000E-02  1.4255370839203E-02  9.0612848918920E-02
    10  9.0000000000000E-02  1.8562781185800E-02  1.1283689603895E-01
    11  1.0000000000000E-01  2.3619487025195E-02  1.3680333513608E-01
    12  1.1000000000000E-01  2.9495417111612E-02  1.6225135206013E-01
    13  1.2000000000000E-01  3.6262458673870E-02  1.8890751152756E-01
    14  1.3000000000000E-01  4.3993068445951E-02  2.1648959106720E-01
    15  1.4000000000000E-01  5.2758854201216E-02  2.4471050686391E-01
    16  1.5000000000000E-01  6.2629150198394E-02  2.7328226922925E-01
    17  1.6000000000000E-01  7.3669610122875E-02  3.0191990493975E-01
    18  1.7000000000000E-01  8.5940840901659E-02  3.3034528420410E-01
    19  1.8000000000000E-01  9.9497100185071E-02  3.5829079154742E-01
    20  1.9000000000000E-01  1.1438507932980E-01  3.8550278241705E-01
    21  2.0000000000000E-01  1.3064279239841E-01  4.1174477078686E-01
    22  2.1000000000000E-01  1.4829859002829E-01  4.3680029741779E-01
    23  2.2000000000000E-01  1.6737031504198E-01  4.6047543365851E-01
    24  2.3000000000000E-01  1.8786461439983E-01  4.8260088166506E-01
    25  2.4000000000000E-01  2.0977641956895E-01  5.0303363859204E-01
    26  2.5000000000000E-01  2.3308860463779E-01  5.2165819955961E-01
    27  2.6000000000000E-01  2.5777182858589E-01  5.3838728191746E-01
    28  2.7000000000000E-01  2.8378456506877E-01  5.5316206138903E-01
    29  2.8000000000000E-01  3.1107331994730E-01  5.6595191895747E-01
    30  2.9000000000000E-01  3.3957303362946E-01  5.7675370571765E-01
    31  3.0000000000000E-01  3.6920766215162E-01  5.8559054122719E-01
    32  3.1000000000000E-01  3.9989092785876E-01  5.9251016900825E-01
    33  3.2000000000000E-01  4.3152722760003E-01  5.9758290064221E-01
    34  3.3000000000000E-01  4.6401268358801E-01  6.0089918722913E-01
    35  3.4000000000000E-01  4.9723631952566E-01  6.0256686372339E-01
    36  3.5000000000000E-01  5.3108134232997E-01  6.0270811768663E-01
    37  3.6000000000000E-01  5.6542650781759E-01  6.0145623920650E-01
    38  3.7000000000000E-01  6.0014754710249E-01  5.9895221301708E-01
    39  3.8000000000000E-01  6.3511862922208E-01  5.9534121713616E-01
    40  3.9000000000000E-01  6.7021383468230E-01  5.9076909453691E-01
    41  4.0000000000000E-01  7.0530861421441E-01  5.8537886544126E-01
    42  4.1000000000000E-01  7.4028120708016E-01  5.7930734772496E-01
    43  4.2000000000000E-01  7.7501399375438E-01  5.7268195164126E-01
    44  4.3000000000000E-01  8.0939475875240E-01  5.6561771260489E-01
    45  4.4000000000000E-01  8.4331784074738E-01  5.5821462215313E-01
    46  4.5000000000000E-01  8.7668514892106E-01  5.5055531245841E-01
    47  4.6000000000000E-01  9.0940702668821E-01  5.4270314397032E-01
    48  4.7000000000000E-01  9.4140294649862E-01  5.3470073899573E-01
    49  4.8000000000000E-01  9.7260202231219E-01  5.2656899638421E-01
    50  4.9000000000000E-01  1.0029433295185E+00  5.1830661408895E-01
    51  5.0000000000000E-01  1.0323760254818E+00  5.0989013735431E-01
    52  5.1000000000000E-01  1.0608592674797E+00  5.0127454078476E-01
    53  5.2000000000000E-01  1.0883619285103E+00  4.9239434273496E-01
    54  5.3000000000000E-01  1.1148621152019E+00  4.8316524049181E-01
    55  5.4000000000000E-01  1.1403464958139E+00  4.7348624476981E-01
    56  5.5000000000000E-01  1.1648094499878E+00  4.6324228228543E-01
    57  5.6000000000000E-01  1.1882520554428E+00  4.5230722579083E-01
    58  5.7000000000000E-01  1.2106809301304E+00  4.4054730210448E-01
    59  5.8000000000000E-01  1.2321069514140E+00  4.2782482054345E-01