Si    ONCVPSP-4.0.1  r_core=   2.38392   3.58059
     14.0000      4.0000      200312    zatom,zion,pspd
     8      11   1     4   600     0    pspcod,pspxc,lmax,lloc,mmax,r2well
  5.99000000  0.00000000  0.00000000    rchrg fchrg qchrg
     2     2     0     0     0    nproj
     1     1           extension_switch
   0                         6.5877353801695E+00  4.4971467538899E-01
     1  0.0000000000000E+00  1.0020484442208E-11 -2.6860957902386E-11
     2  1.0000000000000E-02  2.7749020929442E-02 -1.8512310512791E-02
     3  2.0000000000000E-02  5.5502791728547E-02 -3.7029417510599E-02
     4  3.0000000000000E-02  8.3265942221089E-02 -5.5555869417883E-02
     5  4.0000000000000E-02  1.1104286275746E-01 -7.4095720122720E-02
     6  5.0000000000000E-02  1.3883758602146E-01 -9.2652285663797E-02
     7  6.0000000000000E-02  1.6665367068222E-01 -1.1122790564482E-01
     8  7.0000000000000E-02  1.9449408749459E-01 -1.2982371092108E-01
     9  8.0000000000000E-02  2.2236110844140E-01 -1.4843939907589E-01
    10  9.0000000000000E-02  2.5025619949847E-01 -1.6707301917167E-01
    11  1.0000000000000E-01  2.7817991758841E-01 -1.8572076722026E-01
    12  1.1000000000000E-01  3.0613181227217E-01 -2.0437679377060E-01
    13  1.2000000000000E-01  3.3411033270757E-01 -2.2303302495936E-01
    14  1.3000000000000E-01  3.6211274038233E-01 -2.4167899831030E-01
    15  1.4000000000000E-01  3.9013502810515E-01 -2.6030171450294E-01
    16  1.5000000000000E-01  4.1817184571209E-01 -2.7888550625924E-01
    17  1.6000000000000E-01  4.4621643291758E-01 -2.9741192541916E-01
    18  1.7000000000000E-01  4.7426055970889E-01 -3.1585964919230E-01
    19  1.8000000000000E-01  5.0229447465113E-01 -3.3420440648328E-01
    20  1.9000000000000E-01  5.3030686143586E-01 -3.5241892509389E-01
    21  2.0000000000000E-01  5.5828480397108E-01 -3.7047290050456E-01
    22  2.1000000000000E-01  5.8621376027318E-01 -3.8833298683259E-01
    23  2.2000000000000E-01  6.1407754538316E-01 -4.0596281045472E-01
    24  2.3000000000000E-01  6.4185832348966E-01 -4.2332300666754E-01
    25  2.4000000000000E-01  6.6953660940040E-01 -4.4037127964037E-01
    26  2.5000000000000E-01  6.9709127946198E-01 -4.5706248579394E-01
    27  2.6000000000000E-01  7.2449959198509E-01 -4.7334874061302E-01
    28  2.7000000000000E-01  7.5173721718908E-01 -4.8917954877311E-01
    29  2.8000000000000E-01  7.7877827663564E-01 -5.0450195733157E-01
    30  2.9000000000000E-01  8.0559539207766E-01 -5.1926073160214E-01
    31  3.0000000000000E-01  8.3215974360439E-01 -5.3339855319871E-01
    32  3.1000000000000E-01  8.5844113692039E-01 -5.4685623960164E-01
    33  3.2000000000000E-01  8.8440807955124E-01 -5.5957298446683E-01
    34  3.3000000000000E-01  9.1002786572553E-01 -5.7148661776539E-01
    35  3.4000000000000E-01  9.3526666963977E-01 -5.8253388471210E-01
    36  3.5000000000000E-01  9.6008964677045E-01 -5.9265074231189E-01
    37  3.6000000000000E-01  9.8446104285662E-01 -6.0177267222920E-01
    38  3.7000000000000E-01  1.0083443101362E+00 -6.0983500856299E-01
    39  3.8000000000000E-01  1.0317022303808E+00 -6.1677327899413E-01
    40  3.9000000000000E-01  1.0544970442371E+00 -6.2252355766026E-01
    41  4.0000000000000E-01  1.0766905863477E+00 -6.2702282800719E-01
    42  4.1000000000000E-01  1.0982444256912E+00 -6.3020935376865E-01
    43  4.2000000000000E-01  1.1191200105499E+00 -6.3202305613417E-01
    44  4.3000000000000E-01  1.1392788174873E+00 -6.3240589508283E-01
    45  4.4000000000000E-01  1.1586825036869E+00 -6.3130225278731E-01
    46  4.5000000000000E-01  1.1772930619868E+00 -6.2865931692821E-01
    47  4.6000000000000E-01  1.1950729779181E+00 -6.2442746170597E-01
    48  4.7000000000000E-01  1.2119853880414E+00 -6.1856062429455E-01
    49  4.8000000000000E-01  1.2279942388607E+00 -6.1101667445101E-01
    50  4.9000000000000E-01  1.2430644455802E+00 -6.0175777497520E-01
    51  5.0000000000000E-01  1.2571620499670E+00 -5.9075073070836E-01
    52  5.1000000000000E-01  1.2702543765709E+00 -5.7796732376502E-01
    53  5.2000000000000E-01  1.2823101865595E+00 -5.6338463271324E-01
    54  5.3000000000000E-01  1.2932998284213E+00 -5.4698533345019E-01
    55  5.4000000000000E-01  1.3031953848021E+00 -5.2875797956726E-01
    56  5.5000000000000E-01  1.3119708147459E+00 -5.0869726005915E-01
    57  5.6000000000000E-01  1.3196020906245E+00 -4.8680423230525E-01
    58  5.7000000000000E-01  1.3260673290586E+00 -4.6308652833830E-01
    59  5.8000000000000E-01  1.3313469151511E+00 -4.3755853251767E-01
    60  5.9000000000000E-01  1.3354236193784E+00 -4.1024152883702E-01
    61  6.0000000000000E-01  1.3382827065108E+00 -3.8116381622319E-01
    62  6.1000000000000E-01  1.3399120359640E+00 -3.5036079032304E-01
    63  6.2000000000000E-01  1.3403021530160E+00 -3.1787499042420E-01
    64  6.3000000000000E-01  1.3394463703618E+00 -2.8375611031934E-01
    65  6.4000000000000E-01  1.3373408395126E+00 -2.4806097209427E-01
    66  6.5000000000000E-01  1.3339846115943E+00 -2.1085346200445E-01
    67  6.6000000000000E-01  1.3293796871376E+00 -1.7220442779354E-01
    68  6.7000000000000E-01  1.3235310545023E+00 -1.3219153700853E-01
    69  6.8000000000000E-01  1.3164467166260E+00 -9.0899096070909E-02
    70  6.9000000000000E-01  1.3081377058368E+00 -4.8417830076078E-02
    71  7.0000000000000E-01  1.2986180865212E+00 -4.8446235102256E-03
    72  7.1000000000000E-01  1.2879049454943E+00  3.9717777705125E-02
    73  7.2000000000000E-01  1.2760183699687E+00  8.5161102207318E-02
    74  7.3000000000000E-01  1.2629814130806E+00  1.3137192636659E-01
    75  7.4000000000000E-01  1.2488200469801E+00  1.7823208355568E-01
    76  7.5000000000000E-01  1.2335631035558E+00  2.2561910820611E-01
    77  7.6000000000000E-01  1.2172422029144E+00  2.7340671311993E-01
    78  7.7000000000000E-01  1.1998916697975E+00  3.2146529828666E-01
    79  7.8000000000000E-01  1.1815484381696E+00  3.6966248923974E-01
    80  7.9000000000000E-01  1.1622519442683E+00  4.1786370277860E-01
    81  8.0000000000000E-01  1.1420440084641E+00  4.6593273767935E-01
    82  8.1000000000000E-01  1.1209687063254E+00  5.1373238782257E-01
    83  8.2000000000000E-01  1.0990722293428E+00  5.6112507498093E-01
    84  8.3000000000000E-01  1.0764027358120E+00  6.0797349833279E-01
    85  8.4000000000000E-01  1.0530101924253E+00  6.5414129760308E-01
    86  8.5000000000000E-01  1.0289462071704E+00  6.9949372657799E-01
    87  8.6000000000000E-01  1.0042638541765E+00  7.4389833359807E-01
    88  8.7000000000000E-01  9.7901749119146E-01  7.8722564550630E-01
    89  8.8000000000000E-01  9.5326257041639E-01  8.2934985141019E-01
    90  8.9000000000000E-01  9.2705544345632E-01  8.7014948251672E-01
    91  9.0000000000000E-01  9.0045316118544E-01  9.0950808421076E-01
    92  9.1000000000000E-01  8.7351326935445E-01  9.4731487647389E-01
    93  9.2000000000000E-01  8.4629360079784E-01  9.8346539868327E-01
    94  9.3000000000000E-01  8.1885206512516E-01  1.0178621347855E+00
    95  9.4000000000000E-01  7.9124643680366E-01  1.0504151148124E+00
    96  9.5000000000000E-01  7.6353414256004E-01  1.0810424886899E+00
    97  9.6000000000000E-01  7.3577204904688E-01  1.1096710682940E+00
    98  9.7000000000000E-01  7.0801625173326E-01  1.1362368337176E+00
    99  9.8000000000000E-01  6.8032186599121E-01  1.1606853997449E+00
   100  9.9000000000000E-01  6.5274282135787E-01  1.1829724385671E+00
   101  1.0000000000000E+00  6.2533165995939E-01  1.2030640548279E+00
   102  1.0100000000000E+00  5.9813934008546E-01  1.2209371091544E+00
   103  1.0200000000000E+00  5.7121504590370E-01  1.2365794864036E+00
   104  1.0300000000000E+00  5.4460600430109E-01  1.2499903049428E+00
   105  1.0400000000000E+00  5.1835730983465E-01  1.2611800633810E+00
   106  1.0500000000000E+00  4.9251175876650E-01  1.2701707212695E+00
   107  1.0600000000000E+00  4.6710969314905E-01  1.2769957104103E+00
   108  1.0700000000000E+00  4.4218885591451E-01  1.2816998735248E+00
   109  1.0800000000000E+00  4.1778425790908E-01  1.2843393271661E+00
   110  1.0900000000000E+00  3.9392805779704E-01  1.2849812458884E+00
   111  1.1000000000000E+00  3.7064945574239E-01  1.2837035648230E+00
   112  1.1100000000000E+00  3.4797460175695E-01  1.2805945979482E+00
   113  1.1200000000000E+00  3.2592651958349E-01  1.2757525694827E+00
   114  1.1300000000000E+00  3.0452504696053E-01  1.2692850559732E+00
   115  1.1400000000000E+00  2.8378679309292E-01  1.2613083367896E+00
   116  1.1500000000000E+00  2.6372511412767E-01  1.2519466508826E+00
   117  1.1600000000000E+00  2.4435010741002E-01  1.2413313578006E+00
   118  1.1700000000000E+00  2.2566862526860E-01  1.2296000010983E+00
   119  1.1800000000000E+00  2.0768430905187E-01  1.2168952724083E+00
   120  1.1900000000000E+00  1.9039764411083E-01  1.2033638745772E+00
   121  1.2000000000000E+00  1.7380603639535E-01  1.1891552823949E+00
   122  1.2100000000000E+00  1.5790391130268E-01  1.1744203995728E+00
   123  1.2200000000000E+00  1.4268283538879E-01  1.1593101107408E+00
   124  1.2300000000000E+00  1.2813166152353E-01  1.1439737273502E+00
   125  1.2400000000000E+00  1.1423669804179E-01  1.1285573264744E+00
   126  1.2500000000000E+00  1.0098190248358E-01  1.1132019831926E+00
   127  1.2600000000000E+00  8.8349098353241E-02  1.0980418556318E+00
   128  1.2700000000000E+00  7.6318223059135E-02  1.0832022688522E+00
   129  1.2800000000000E+00  6.4867216929592E-02  1.0687898787833E+00
   130  1.2900000000000E+00  5.3971712309205E-02  1.0548719501772E+00
   131  1.3000000000000E+00  4.3605910803160E-02  1.0414710285242E+00
   132  1.3100000000000E+00  3.3743821044957E-02  1.0285684393117E+00
   133  1.3200000000000E+00  2.4360352907577E-02  1.0161099425114E+00
   134  1.3300000000000E+00  1.5432204205682E-02  1.0040130242421E+00
   135  1.3400000000000E+00  6.9384959544569E-03  9.9217507067330E-01
   136  1.3500000000000E+00 -1.1388561891101E-03  9.8048169970294E-01
   137  1.3600000000000E+00 -8.8150198794246E-03  9.6881461301516E-01
   138  1.3700000000000E+00 -1.6102338410478E-02  9.5705847532315E-01
   139  1.3800000000000E+00 -2.3010589590327E-02  9.4510649857414E-01
   140  1.3900000000000E+00 -2.9547358324507E-02  9.3286458212129E-01
   141  1.4000000000000E+00 -3.5718471804078E-02  9.2025401136726E-01
   142  1.4100000000000E+00 -4.1528452748527E-02  9.0721283460455E-01
   143  1.4200000000000E+00 -4.6980955542625E-02  8.9369611536313E-01
   144  1.4300000000000E+00 -5.2079160402494E-02  8.7967529711793E-01
   145  1.4400000000000E+00 -5.6826110597825E-02  8.6513692413428E-01
   146  1.4500000000000E+00 -6.1224986093974E-02  8.5008094526889E-01
   147  1.4600000000000E+00 -6.5279313609406E-02  8.3451880015968E-01
   148  1.4700000000000E+00 -6.8993117075837E-02  8.1847142850165E-01
   149  1.4800000000000E+00 -7.2371017038796E-02  8.0196736889126E-01
   150  1.4900000000000E+00 -7.5418284877084E-02  7.8504093497242E-01
   151  1.5000000000000E+00 -7.8140863933219E-02  7.6773063695285E-01
   152  1.5100000000000E+00 -8.0545362810647E-02  7.5007777160464E-01
   153  1.5200000000000E+00 -8.2639029789335E-02  7.3212524434830E-01
   154  1.5300000000000E+00 -8.4429713844225E-02  7.1391659490575E-01
   155  1.5400000000000E+00 -8.5925817336457E-02  6.9549521536192E-01
   156  1.5500000000000E+00 -8.7136244193081E-02  6.7690373968970E-01
   157  1.5600000000000E+00 -8.8070346427087E-02  6.5818358232208E-01
   158  1.5700000000000E+00 -8.8737871021817E-02  6.3937460319886E-01
   159  1.5800000000000E+00 -8.9148908549221E-02  6.2051487811494E-01
   160  1.5900000000000E+00 -8.9313844360211E-02  6.0164055489979E-01
   161  1.6000000000000E+00 -8.9243312790983E-02  5.8278577818376E-01
   162  1.6100000000000E+00 -8.8948154557743E-02  5.6398266809405E-01
   163  1.6200000000000E+00 -8.8439377290702E-02  5.4526134012353E-01
   164  1.6300000000000E+00 -8.7728119038565E-02  5.2664995571634E-01
   165  1.6400000000000E+00 -8.6825614491225E-02  5.0817479492678E-01
   166  1.6500000000000E+00 -8.5743163620042E-02  4.8986034403998E-01
   167  1.6600000000000E+00 -8.4492102422461E-02  4.7172939247342E-01
   168  1.6700000000000E+00 -8.3083775458022E-02  4.5380313438428E-01
   169  1.6800000000000E+00 -8.1529509889737E-02  4.3610127150496E-01
   170  1.6900000000000E+00 -7.9840590751914E-02  4.1864211429071E-01
   171  1.7000000000000E+00 -7.8028237210433E-02  4.0144267930875E-01
   172  1.7100000000000E+00 -7.6103579616271E-02  3.8451878134632E-01
   173  1.7200000000000E+00 -7.4077637169244E-02  3.6788511894483E-01
   174  1.7300000000000E+00 -7.1961296062202E-02  3.5155535265798E-01
   175  1.7400000000000E+00 -6.9765287999943E-02  3.3554217552471E-01
   176  1.7500000000000E+00 -6.7500169015425E-02  3.1985737545399E-01
   177  1.7600000000000E+00 -6.5176298541984E-02  3.0451188950320E-01
   178  1.7700000000000E+00 -6.2803818714497E-02  2.8951585005289E-01
   179  1.7800000000000E+00 -6.0392633918099E-02  2.7487862324367E-01
   180  1.7900000000000E+00 -5.7952390600929E-02  2.6060883989263E-01
   181  1.8000000000000E+00 -5.5492457395906E-02  2.4671441929816E-01
   182  1.8100000000000E+00 -5.3021905624910E-02  2.3320258652422E-01
   183  1.8200000000000E+00 -5.0549490258320E-02  2.2007988365844E-01
   184  1.8300000000000E+00 -4.8083631408363E-02  2.0735217552824E-01
   185  1.8400000000000E+00 -4.5632396477017E-02  1.9502465069926E-01
   186  1.8500000000000E+00 -4.3203483044515E-02  1.8310181820216E-01
   187  1.8600000000000E+00 -4.0804202628240E-02  1.7158750080799E-01
   188  1.8700000000000E+00 -3.8441465411856E-02  1.6048482537329E-01
   189  1.8800000000000E+00 -3.6121766070522E-02  1.4979621099956E-01
   190  1.8900000000000E+00 -3.3851170814360E-02  1.3952335571390E-01
   191  1.9000000000000E+00 -3.1635305752673E-02  1.2966722220942E-01
   192  1.9100000000000E+00 -2.9479346693451E-02  1.2022802330955E-01
   193  1.9200000000000E+00 -2.7388010495851E-02  1.1120520786785E-01
   194  1.9300000000000E+00 -2.5365548055871E-02  1.0259744752245E-01
   195  1.9400000000000E+00 -2.3415739039155E-02  9.4402625049544E-02
   196  1.9500000000000E+00 -2.1541888420957E-02  8.6617824648123E-02
   197  1.9600000000000E+00 -1.9746824922130E-02  7.9239324776198E-02
   198  1.9700000000000E+00 -1.8032901404224E-02  7.2262593993728E-02
   199  1.9800000000000E+00 -1.6401997264990E-02  6.5682290142350E-02
   200  1.9900000000000E+00 -1.4855522873780E-02  5.9492263237018E-02
   201  2.0000000000000E+00 -1.3394426081239E-02  5.3685562459515E-02
   202  2.0100000000000E+00 -1.2019200815689E-02  4.8254447521214E-02
   203  2.0200000000000E+00 -1.0729897748141E-02  4.3190404488995E-02
   204  2.0300000000000E+00 -9.5261370301519E-03  3.8484166397433E-02
   205  2.0400000000000E+00 -8.4071230716623E-03  3.4125738740014E-02
   206  2.0500000000000E+00 -7.3716613055049E-03  3.0104429829792E-02
   207  2.0600000000000E+00 -6.4181769005110E-03  2.6408886195568E-02
   208  2.0700000000000E+00 -5.5447353316796E-03  2.3027132820310E-02
   209  2.0800000000000E+00 -4.7490647402376E-03  1.9946618270558E-02
   210  2.0900000000000E+00 -4.0285799868756E-03  1.7154264584897E-02
   211  2.1000000000000E+00 -3.3804082835090E-03  1.4636521702572E-02
   212  2.1100000000000E+00 -2.8014162780416E-03  1.2379426177194E-02
   213  2.1200000000000E+00 -2.2882384782561E-03  1.0368664039353E-02
   214  2.1300000000000E+00 -1.8373068660750E-03  8.5896374528505E-03
   215  2.1400000000000E+00 -1.4448815439233E-03  7.0275347689574E-03
   216  2.1500000000000E+00 -1.1070822572509E-03  5.6674036268285E-03
   217  2.1600000000000E+00 -8.1992064338429E-04  4.4942268126091E-03
   218  2.1700000000000E+00 -5.7933300570806E-04  3.4930002384452E-03
   219  2.1800000000000E+00 -3.8121345993560E-04  2.6488127589320E-03
   220  2.1900000000000E+00 -2.2144725889150E-04  1.9469272621080E-03
   221  2.2000000000000E+00 -9.5944100201219E-05  1.3728624613737E-03
   222  2.2100000000000E+00 -6.7125372520466E-07  9.1247504416966E-04
   223  2.2200000000000E+00  6.8313733408178E-05  5.5204148015633E-04
   224  2.2300000000000E+00  1.1483075452937E-04  2.7833924409830E-04
   225  2.2400000000000E+00  1.4254534155372E-04  7.8726648553694E-05
   226  2.2500000000000E+00  1.5493968496305E-04 -5.8777138448718E-05
   227  2.2600000000000E+00  1.5528362619523E-04 -1.4543351685290E-04
   228  2.2700000000000E+00  1.4656536723931E-04 -1.9162246582942E-04
   229  2.2800000000000E+00  1.3139896339337E-04 -2.0660608607014E-04
   230  2.2900000000000E+00  1.1221053927187E-04 -1.9880531889453E-04
   231  2.3000000000000E+00  9.1179466263205E-05 -1.7577385342890E-04
   232  2.3100000000000E+00  7.0146089729427E-05 -1.4409262929250E-04
   233  2.3200000000000E+00  5.0605567428451E-05 -1.0929886611586E-04
   234  2.3300000000000E+00  3.3684537068392E-05 -7.5827332682342E-05
   235  2.3400000000000E+00  2.0124062839620E-05 -4.6955882306058E-05
   236  2.3500000000000E+00  1.0262554699434E-05 -2.4754089399093E-05
   237  2.3600000000000E+00  4.0307250846888E-06 -1.0056638878707E-05
   238  2.3700000000000E+00  9.2946872392297E-07 -2.4179237704714E-06
   239  2.3800000000000E+00  3.9649735475723E-08 -1.0614374906609E-07
   240  2.3900000000000E+00 -1.6136889188278E-08  6.4335215675806E-08
   241  2.4000000000000E+00  4.5123889087154E-09 -1.3853116805576E-08
   242  2.41  0. -0.
   243  2.42 -0.  0.
   244  2.43  0. -0.
   245  2.44  0. -0.
   246  2.45  0.  0.
   247  2.46  0.  0.
   248  2.47  0.  0.
   249  2.48  0.  0.
   250  2.49  0.  0.
   251  2.50  0.  0.
   252  2.51  0.  0.
   253  2.52  0.  0.
   254  2.53  0.  0.
   255  2.54  0.  0.
   256  2.55  0.  0.
   257  2.56  0.  0.
   258  2.57  0.  0.
   259  2.58  0.  0.
   260  2.59  0.  0.
   261  2.60  0.  0.
   262  2.61  0.  0.
   263  2.62  0.  0.
   264  2.63  0.  0.
   265  2.64  0.  0.
   266  2.65  0.  0.
   267  2.66  0.  0.
   268  2.67  0.  0.
   269  2.68  0.  0.
   270  2.69  0.  0.
   271  2.70  0.  0.
   272  2.71  0.  0.
   273  2.72  0.  0.
   274  2.73  0.  0.
   275  2.74  0.  0.
   276  2.75  0.  0.
   277  2.76  0.  0.
   278  2.77  0.  0.
   279  2.78  0.  0.
   280  2.79  0.  0.
   281  2.80  0.  0.
   282  2.81  0.  0.
   283  2.82  0.  0.
   284  2.83  0.  0.
   285  2.84  0.  0.
   286  2.85  0.  0.
   287  2.86  0.  0.
   288  2.87  0.  0.
   289  2.88  0.  0.
   290  2.89  0.  0.
   291  2.90  0.  0.
   292  2.91  0.  0.
   293  2.92  0.  0.
   294  2.93  0.  0.
   295  2.94  0.  0.
   296  2.95  0.  0.
   297  2.96  0.  0.
   298  2.97  0.  0.
   299  2.98  0.  0.
   300  2.99  0.  0.
   301  3.00  0.  0.
   302  3.01  0.  0.
   303  3.02  0.  0.
   304  3.03  0.  0.
   305  3.04  0.  0.
   306  3.05  0.  0.
   307  3.06  0.  0.
   308  3.07  0.  0.
   309  3.08  0.  0.
   310  3.09  0.  0.
   311  3.10  0.  0.
   312  3.11  0.  0.
   313  3.12  0.  0.
   314  3.13  0.  0.
   315  3.14  0.  0.
   316  3.15  0.  0.
   317  3.16  0.  0.
   318  3.17  0.  0.
   319  3.18  0.  0.
   320  3.19  0.  0.
   321  3.20  0.  0.
   322  3.21  0.  0.
   323  3.22  0.  0.
   324  3.23  0.  0.
   325  3.24  0.  0.
   326  3.25  0.  0.
   327  3.26  0.  0.
   328  3.27  0.  0.
   329  3.28  0.  0.
   330  3.29  0.  0.
   331  3.30  0.  0.
   332  3.31  0.  0.
   333  3.32  0.  0.
   334  3.33  0.  0.
   335  3.34  0.  0.
   336  3.35  0.  0.
   337  3.36  0.  0.
   338  3.37  0.  0.
   339  3.38  0.  0.
   340  3.39  0.  0.
   341  3.40  0.  0.
   342  3.41  0.  0.
   343  3.42  0.  0.
   344  3.43  0.  0.
   345  3.44  0.  0.
   346  3.45  0.  0.
   347  3.46  0.  0.
   348  3.47  0.  0.
   349  3.48  0.  0.
   350  3.49  0.  0.
   351  3.50  0.  0.
   352  3.51  0.  0.
   353  3.52  0.  0.
   354  3.53  0.  0.
   355  3.54  0.  0.
   356  3.55  0.  0.
   357  3.56  0.  0.
   358  3.57  0.  0.
   359  3.58  0.  0.
   360  3.59  0.  0.
   361  3.60  0.  0.
   362  3.61  0.  0.
   363  3.62  0.  0.
   364  3.63  0.  0.
   365  3.64  0.  0.
   366  3.65  0.  0.
   367  3.66  0.  0.
   368  3.67  0.  0.
   369  3.68  0.  0.
   370  3.69  0.  0.
   371  3.70  0.  0.
   372  3.71  0.  0.
   373  3.72  0.  0.
   374  3.73  0.  0.
   375  3.74  0.  0.
   376  3.75  0.  0.
   377  3.76  0.  0.
   378  3.77  0.  0.
   379  3.78  0.  0.
   380  3.79  0.  0.
   381  3.80  0.  0.
   382  3.81  0.  0.
   383  3.82  0.  0.
   384  3.83  0.  0.
   385  3.84  0.  0.
   386  3.85  0.  0.
   387  3.86  0.  0.
   388  3.87  0.  0.
   389  3.88  0.  0.
   390  3.89  0.  0.
   391  3.90  0.  0.
   392  3.91  0.  0.
   393  3.92  0.  0.
   394  3.93  0.  0.
   395  3.94  0.  0.
   396  3.95  0.  0.
   397  3.96  0.  0.
   398  3.97  0.  0.
   399  3.98  0.  0.
   400  3.99  0.  0.
   401  4.00  0.  0.
   402  4.01  0.  0.
   403  4.02  0.  0.
   404  4.03  0.  0.
   405  4.04  0.  0.
   406  4.05  0.  0.
   407  4.06  0.  0.
   408  4.07  0.  0.
   409  4.08  0.  0.
   410  4.09  0.  0.
   411  4.10  0.  0.
   412  4.11  0.  0.
   413  4.12  0.  0.
   414  4.13  0.  0.
   415  4.14  0.  0.
   416  4.15  0.  0.
   417  4.16  0.  0.
   418  4.17  0.  0.
   419  4.18  0.  0.
   420  4.19  0.  0.
   421  4.20  0.  0.
   422  4.21  0.  0.
   423  4.22  0.  0.
   424  4.23  0.  0.
   425  4.24  0.  0.
   426  4.25  0.  0.
   427  4.26  0.  0.
   428  4.27  0.  0.
   429  4.28  0.  0.
   430  4.29  0.  0.
   431  4.30  0.  0.
   432  4.31  0.  0.
   433  4.32  0.  0.
   434  4.33  0.  0.
   435  4.34  0.  0.
   436  4.35  0.  0.
   437  4.36  0.  0.
   438  4.37  0.  0.
   439  4.38  0.  0.
   440  4.39  0.  0.
   441  4.40  0.  0.
   442  4.41  0.  0.
   443  4.42  0.  0.
   444  4.43  0.  0.
   445  4.44  0.  0.
   446  4.45  0.  0.
   447  4.46  0.  0.
   448  4.47  0.  0.
   449  4.48  0.  0.
   450  4.49  0.  0.
   451  4.50  0.  0.
   452  4.51  0.  0.
   453  4.52  0.  0.
   454  4.53  0.  0.
   455  4.54  0.  0.
   456  4.55  0.  0.
   457  4.56  0.  0.
   458  4.57  0.  0.
   459  4.58  0.  0.
   460  4.59  0.  0.
   461  4.60  0.  0.
   462  4.61  0.  0.
   463  4.62  0.  0.
   464  4.63  0.  0.
   465  4.64  0.  0.
   466  4.65  0.  0.
   467  4.66  0.  0.
   468  4.67  0.  0.
   469  4.68  0.  0.
   470  4.69  0.  0.
   471  4.70  0.  0.
   472  4.71  0.  0.
   473  4.72  0.  0.
   474  4.73  0.  0.
   475  4.74  0.  0.
   476  4.75  0.  0.
   477  4.76  0.  0.
   478  4.77  0.  0.
   479  4.78  0.  0.
   480  4.79  0.  0.
   481  4.80  0.  0.
   482  4.81  0.  0.
   483  4.82  0.  0.
   484  4.83  0.  0.
   485  4.84  0.  0.
   486  4.85  0.  0.
   487  4.86  0.  0.
   488  4.87  0.  0.
   489  4.88  0.  0.
   490  4.89  0.  0.
   491  4.90  0.  0.
   492  4.91  0.  0.
   493  4.92  0.  0.
   494  4.93  0.  0.
   495  4.94  0.  0.
   496  4.95  0.  0.
   497  4.96  0.  0.
   498  4.97  0.  0.
   499  4.98  0.  0.
   500  4.99  0.  0.
   501  5.00  0.  0.
   502  5.01  0.  0.
   503  5.02  0.  0.
   504  5.03  0.  0.
   505  5.04  0.  0.
   506  5.05  0.  0.
   507  5.06  0.  0.
   508  5.07  0.  0.
   509  5.08  0.  0.
   510  5.09  0.  0.
   511  5.10  0.  0.
   512  5.11  0.  0.
   513  5.12  0.  0.
   514  5.13  0.  0.
   515  5.14  0.  0.
   516  5.15  0.  0.
   517  5.16  0.  0.
   518  5.17  0.  0.
   519  5.18  0.  0.
   520  5.19  0.  0.
   521  5.20  0.  0.
   522  5.21  0.  0.
   523  5.22  0.  0.
   524  5.23  0.  0.
   525  5.24  0.  0.
   526  5.25  0.  0.
   527  5.26  0.  0.
   528  5.27  0.  0.
   529  5.28  0.  0.
   530  5.29  0.  0.
   531  5.30  0.  0.
   532  5.31  0.  0.
   533  5.32  0.  0.
   534  5.33  0.  0.
   535  5.34  0.  0.
   536  5.35  0.  0.
   537  5.36  0.  0.
   538  5.37  0.  0.
   539  5.38  0.  0.
   540  5.39  0.  0.
   541  5.40  0.  0.
   542  5.41  0.  0.
   543  5.42  0.  0.
   544  5.43  0.  0.
   545  5.44  0.  0.
   546  5.45  0.  0.
   547  5.46  0.  0.
   548  5.47  0.  0.
   549  5.48  0.  0.
   550  5.49  0.  0.
   551  5.50  0.  0.
   552  5.51  0.  0.
   553  5.52  0.  0.
   554  5.53  0.  0.
   555  5.54  0.  0.
   556  5.55  0.  0.
   557  5.56  0.  0.
   558  5.57  0.  0.
   559  5.58  0.  0.
   560  5.59  0.  0.
   561  5.60  0.  0.
   562  5.61  0.  0.
   563  5.62  0.  0.
   564  5.63  0.  0.
   565  5.64  0.  0.
   566  5.65  0.  0.
   567  5.66  0.  0.
   568  5.67  0.  0.
   569  5.68  0.  0.
   570  5.69  0.  0.
   571  5.70  0.  0.
   572  5.71  0.  0.
   573  5.72  0.  0.
   574  5.73  0.  0.
   575  5.74  0.  0.
   576  5.75  0.  0.
   577  5.76  0.  0.
   578  5.77  0.  0.
   579  5.78  0.  0.
   580  5.79  0.  0.
   581  5.80  0.  0.
   582  5.81  0.  0.
   583  5.82  0.  0.
   584  5.83  0.  0.
   585  5.84  0.  0.
   586  5.85  0.  0.
   587  5.86  0.  0.
   588  5.87  0.  0.
   589  5.88  0.  0.
   590  5.89  0.  0.
   591  5.90  0.  0.
   592  5.91  0.  0.
   593  5.92  0.  0.
   594  5.93  0.  0.
   595  5.94  0.  0.
   596  5.95  0.  0.
   597  5.96  0.  0.
   598  5.97  0.  0.
   599  5.98  0.  0.
   600  5.99  0.  0.
   1                         3.1289031904220E+00  1.6883273613786E-01
     1  0.0000000000000E+00  1.7624374182290E-11 -6.0362340126296E-11
     2  1.0000000000000E-02  7.4061685135531E-04 -7.4046279057890E-04
     3  2.0000000000000E-02  2.9607928245631E-03 -2.9588066688379E-03
     4  3.0000000000000E-02  6.6555081289913E-03 -6.6459086442272E-03
     5  4.0000000000000E-02  1.1816409611088E-02 -1.1786598667969E-02
     6  5.0000000000000E-02  1.8431830469341E-02 -1.8359711928780E-02
     7  6.0000000000000E-02  2.6486817792669E-02 -2.6338161852099E-02
     8  7.0000000000000E-02  3.5963167859839E-02 -3.5689033588521E-02
     9  8.0000000000000E-02  4.6839469119869E-02 -4.6373697716759E-02
    10  9.0000000000000E-02  5.9091152755882E-02 -5.8347943826442E-02
    11  1.0000000000000E-01  7.2690550717583E-02 -7.1562133586912E-02
    12  1.1000000000000E-01  8.7606961090409E-02 -8.5961372849726E-02
    13  1.2000000000000E-01  1.0380672065260E-01 -1.0148570227514E-01
    14  1.3000000000000E-01  1.2125328445478E-01 -1.1807030591636E-01
    15  1.4000000000000E-01  1.3990731224054E-01 -1.3564573714021E-01
    16  1.5000000000000E-01  1.5972676151030E-01 -1.5413816120884E-01
    17  1.6000000000000E-01  1.8066698701558E-01 -1.7346961379473E-01
    18  1.7000000000000E-01  2.0268084645516E-01 -1.9355827465016E-01
    19  1.8000000000000E-01  2.2571881213048E-01 -2.1431875560323E-01
    20  1.9000000000000E-01  2.4972908830277E-01 -2.3566240200492E-01
    21  2.0000000000000E-01  2.7465773398110E-01 -2.5749760670622E-01
    22  2.1000000000000E-01  3.0044879085712E-01 -2.7973013560088E-01
    23  2.2000000000000E-01  3.2704441608955E-01 -3.0226346372788E-01
    24  2.3000000000000E-01  3.5438501962941E-01 -3.2499912088902E-01
    25  2.4000000000000E-01  3.8240940576559E-01 -3.4783704569985E-01
    26  2.5000000000000E-01  4.1105491855925E-01 -3.7067594695851E-01
    27  2.6000000000000E-01  4.4025759082562E-01 -3.9341367118532E-01
    28  2.7000000000000E-01  4.6995229631211E-01 -4.1594757515722E-01
    29  2.8000000000000E-01  5.0007290471276E-01 -4.3817490223516E-01
    30  2.9000000000000E-01  5.3055243915122E-01 -4.5999316125972E-01
    31  3.0000000000000E-01  5.6132323575701E-01 -4.8130050677018E-01
    32  3.1000000000000E-01  5.9231710495314E-01 -5.0199611928541E-01
    33  3.2000000000000E-01  6.2346549406783E-01 -5.2198058437165E-01
    34  3.3000000000000E-01  6.5469965087773E-01 -5.4115626921168E-01
    35  3.4000000000000E-01  6.8595078768629E-01 -5.5942769538333E-01
    36  3.5000000000000E-01  7.1715024553759E-01 -5.7670190655191E-01
    37  3.6000000000000E-01  7.4822965816358E-01 -5.9288882978127E-01
    38  3.7000000000000E-01  7.7912111526130E-01 -6.0790162917214E-01
    39  3.8000000000000E-01  8.0975732469601E-01 -6.2165705054412E-01
    40  3.9000000000000E-01  8.4007177322666E-01 -6.3407575588862E-01
    41  4.0000000000000E-01  8.6999888535118E-01 -6.4508264633571E-01
    42  4.1000000000000E-01  8.9947417987145E-01 -6.5460717239620E-01
    43  4.2000000000000E-01  9.2843442378096E-01 -6.6258363026361E-01
    44  4.3000000000000E-01  9.5681778308196E-01 -6.6895144298702E-01
    45  4.4000000000000E-01  9.8456397014436E-01 -6.7365542535665E-01
    46  4.5000000000000E-01  1.0116143872241E+00 -6.7664603137836E-01
    47  4.6000000000000E-01  1.0379122657662E+00 -6.7787958325198E-01
    48  4.7000000000000E-01  1.0634028011243E+00 -6.7731848081037E-01
    49  4.8000000000000E-01  1.0880332823395E+00 -6.7493139042265E-01
    50  4.9000000000000E-01  1.1117532166283E+00 -6.7069341241505E-01
    51  5.0000000000000E-01  1.1345144482417E+00 -6.6458622611640E-01
    52  5.1000000000000E-01  1.1562712713689E+00 -6.5659821169359E-01
    53  5.2000000000000E-01  1.1769805367711E+00 -6.4672454800295E-01
    54  5.3000000000000E-01  1.1966017518438E+00 -6.3496728574892E-01
    55  5.4000000000000E-01  1.2150971738202E+00 -6.2133539530973E-01
    56  5.5000000000000E-01  1.2324318958447E+00 -6.0584478866180E-01
    57  5.6000000000000E-01  1.2485739256589E+00 -5.8851831490976E-01
    58  5.7000000000000E-01  1.2634942566603E+00 -5.6938572900774E-01
    59  5.8000000000000E-01  1.2771669311115E+00 -5.4848363333900E-01
    60  5.9000000000000E-01  1.2895690952948E+00 -5.2585539190559E-01
    61  6.0000000000000E-01  1.3006810464266E+00 -5.0155101696731E-01
    62  6.1000000000000E-01  1.3104862711644E+00 -4.7562702805935E-01
    63  6.2000000000000E-01  1.3189714755608E+00 -4.4814628341018E-01
    64  6.3000000000000E-01  1.3261266063382E+00 -4.1917778387705E-01
    65  6.4000000000000E-01  1.3319448633782E+00 -3.8879644961249E-01
    66  6.5000000000000E-01  1.3364227033454E+00 -3.5708286977549E-01
    67  6.6000000000000E-01  1.3395598343821E+00 -3.2412302570057E-01
    68  6.7000000000000E-01  1.3413592018365E+00 -2.9000798804165E-01
    69  6.8000000000000E-01  1.3418269650101E+00 -2.5483358851038E-01
    70  6.9000000000000E-01  1.3409724649310E+00 -2.1870006693390E-01
    71  7.0000000000000E-01  1.3388081831856E+00 -1.8171169446298E-01
    72  7.1000000000000E-01  1.3353496918650E+00 -1.4397637386751E-01
    73  7.2000000000000E-01  1.3306155947038E+00 -1.0560521796341E-01