Sn    ONCVPSP-4.0.1  r_core=   2.78848   2.90773   3.33662
     50.0000     14.0000      200312    zatom,zion,pspd
     8      11   2     4   600     0    pspcod,pspxc,lmax,lloc,mmax,r2well
  5.99000000  0.00000000  0.00000000    rchrg fchrg qchrg
     2     2     2     0     0    nproj
     1     1           extension_switch
   0                         5.1546478512990E+00  1.1909233875819E+00
     1  0.0000000000000E+00 -6.2547189649820E-12  6.3020699769822E-12
     2  1.0000000000000E-02  1.6060909143462E-02  1.4294148304599E-02
     3  2.0000000000000E-02  3.2117350374018E-02  2.8548996915847E-02
     4  3.0000000000000E-02  4.8164892258972E-02  4.2725320624433E-02
     5  4.0000000000000E-02  6.4199176041898E-02  5.6784043251570E-02
     6  5.0000000000000E-02  8.0215951271973E-02  7.0686312318747E-02
     7  6.0000000000000E-02  9.6211110587182E-02  8.4393573898392E-02
     8  7.0000000000000E-02  1.1218072337671E-01  9.7867647698258E-02
     9  8.0000000000000E-02  1.2812106805414E-01  1.1107080242607E-01
    10  9.0000000000000E-02  1.4402866268078E-01  1.2396583147311E-01
    11  1.0000000000000E-01  1.5990029368780E-01  1.3651612894615E-01
    12  1.1000000000000E-01  1.7573304245646E-01  1.4868576606654E-01
    13  1.2000000000000E-01  1.9152430952784E-01  1.6043956794323E-01
    14  1.3000000000000E-01  2.0727183622685E-01  1.7174319071340E-01
    15  1.4000000000000E-01  2.2297372349991E-01  1.8256319903013E-01
    16  1.5000000000000E-01  2.3862844778172E-01  1.9286714386107E-01
    17  1.6000000000000E-01  2.5423487372320E-01  2.0262364054603E-01
    18  1.7000000000000E-01  2.6979226363097E-01  2.1180244704431E-01
    19  1.8000000000000E-01  2.8530028348757E-01  2.2037454228490E-01
    20  1.9000000000000E-01  3.0075900544135E-01  2.2831220451463E-01
    21  2.0000000000000E-01  3.1616890667571E-01  2.3558908952043E-01
    22  2.1000000000000E-01  3.3153086458844E-01  2.4218030858345E-01
    23  2.2000000000000E-01  3.4684614823386E-01  2.4806250600337E-01
    24  2.3000000000000E-01  3.6211640600241E-01  2.5321393601266E-01
    25  2.4000000000000E-01  3.7734364953547E-01  2.5761453888165E-01
    26  2.5000000000000E-01  3.9253023389536E-01  2.6124601599698E-01
    27  2.6000000000000E-01  4.0767883403390E-01  2.6409190367798E-01
    28  2.7000000000000E-01  4.2279241762561E-01  2.6613764547851E-01
    29  2.8000000000000E-01  4.3787421435460E-01  2.6737066270516E-01
    30  2.9000000000000E-01  4.5292768176657E-01  2.6778042286752E-01
    31  3.0000000000000E-01  4.6795646781987E-01  2.6735850576150E-01
    32  3.1000000000000E-01  4.8296437029111E-01  2.6609866687397E-01
    33  3.2000000000000E-01  4.9795529321217E-01  2.6399689778487E-01
    34  3.3000000000000E-01  5.1293320053581E-01  2.6105148323324E-01
    35  3.4000000000000E-01  5.2790206724707E-01  2.5726305450438E-01
    36  3.5000000000000E-01  5.4286582815604E-01  2.5263463878933E-01
    37  3.6000000000000E-01  5.5782832462570E-01  2.4717170416225E-01
    38  3.7000000000000E-01  5.7279324950511E-01  2.4088219981874E-01
    39  3.8000000000000E-01  5.8776409055350E-01  2.3377659121732E-01
    40  3.9000000000000E-01  6.0274407265524E-01  2.2586788976715E-01
    41  4.0000000000000E-01  6.1773609913819E-01  2.1717167670909E-01
    42  4.1000000000000E-01  6.3274269251927E-01  2.0770612084264E-01
    43  4.2000000000000E-01  6.4776593501098E-01  1.9749198975963E-01
    44  4.3000000000000E-01  6.6280740913041E-01  1.8655265425581E-01
    45  4.4000000000000E-01  6.7786813875899E-01  1.7491408560462E-01
    46  4.5000000000000E-01  6.9294853100584E-01  1.6260484539248E-01
    47  4.6000000000000E-01  7.0804831923047E-01  1.4965606763272E-01
    48  4.7000000000000E-01  7.2316650758173E-01  1.3610143289527E-01
    49  4.8000000000000E-01  7.3830131740933E-01  1.2197713421152E-01
    50  4.9000000000000E-01  7.5345013590129E-01  1.0732183453865E-01
    51  5.0000000000000E-01  7.6860946729683E-01  9.2176615594180E-02
    52  5.1000000000000E-01  7.8377488701706E-01  7.6584917901069E-02
    53  5.2000000000000E-01  7.9894099904855E-01  6.0592471914178E-02
    54  5.3000000000000E-01  8.1410139690396E-01  4.4247220132442E-02
    55  5.4000000000000E-01  8.2924862847259E-01  2.7599230135597E-02
    56  5.5000000000000E-01  8.4437416505974E-01  1.0700598521058E-02
    57  5.6000000000000E-01  8.5946837489844E-01 -6.3946542455145E-03
    58  5.7000000000000E-01  8.7452050140000E-01 -2.3630698012753E-02
    59  5.8000000000000E-01  8.8951864639086E-01 -4.0950016065506E-02
    60  5.9000000000000E-01  9.0444975856322E-01 -5.8293537050529E-02
    61  6.0000000000000E-01  9.1929962734486E-01 -7.5600775527805E-02
    62  6.1000000000000E-01  9.3405288237032E-01 -9.2809980926086E-02
    63  6.2000000000000E-01  9.4869299871130E-01 -1.0985829463759E-01
    64  6.3000000000000E-01  9.6320230799831E-01 -1.2668191494284E-01
    65  6.4000000000000E-01  9.7756201553865E-01 -1.4321626941280E-01
    66  6.5000000000000E-01  9.9175222350839E-01 -1.5939619439173E-01
    67  6.6000000000000E-01  1.0057519602671E+00 -1.7515612112108E-01
    68  6.7000000000000E-01  1.0195392158147E+00 -1.9043026802212E-01
    69  6.8000000000000E-01  1.0330909833806E+00 -2.0515283861364E-01
    70  6.9000000000000E-01  1.0463833071040E+00 -2.1925822450053E-01
    71  7.0000000000000E-01  1.0593913357338E+00 -2.3268121283024E-01
    72  7.1000000000000E-01  1.0720893822470E+00 -2.4535719757673E-01
    73  7.2000000000000E-01  1.0844509892521E+00 -2.5722239397640E-01
    74  7.3000000000000E-01  1.0964490000140E+00 -2.6821405540692E-01
    75  7.4000000000000E-01  1.1080556349074E+00 -2.7827069196924E-01
    76  7.5000000000000E-01  1.1192425730751E+00 -2.8733229000466E-01
    77  7.6000000000000E-01  1.1299810390377E+00 -2.9534053175349E-01
    78  7.7000000000000E-01  1.1402418939755E+00 -3.0223901433876E-01
    79  7.8000000000000E-01  1.1499957313727E+00 -3.0797346723995E-01
    80  7.9000000000000E-01  1.1592129766894E+00 -3.1249196740462E-01
    81  8.0000000000000E-01  1.1678639907023E+00 -3.1574515113429E-01
    82  8.1000000000000E-01  1.1759191761296E+00 -3.1768642187135E-01
    83  8.2000000000000E-01  1.1833490871342E+00 -3.1827215300892E-01
    84  8.3000000000000E-01  1.1901245412792E+00 -3.1746188484466E-01
    85  8.4000000000000E-01  1.1962167334897E+00 -3.1521851480182E-01
    86  8.5000000000000E-01  1.2015973515583E+00 -3.1150848004826E-01
    87  8.6000000000000E-01  1.2062386927179E+00 -3.0630193165477E-01
    88  8.7000000000000E-01  1.2101137807896E+00 -2.9957289944960E-01
    89  8.8000000000000E-01  1.2131964834069E+00 -2.9129944674515E-01
    90  8.9000000000000E-01  1.2154616288037E+00 -2.8146381413678E-01
    91  9.0000000000000E-01  1.2168851216530E+00 -2.7005255160101E-01
    92  9.1000000000000E-01  1.2174440574347E+00 -2.5705663815282E-01
    93  9.2000000000000E-01  1.2171168348124E+00 -2.4247158835710E-01
    94  9.3000000000000E-01  1.2158832654988E+00 -2.2629754502971E-01
    95  9.4000000000000E-01  1.2137246810942E+00 -2.0853935750721E-01
    96  9.5000000000000E-01  1.2106240363867E+00 -1.8920664491161E-01
    97  9.6000000000000E-01  1.2065660086130E+00 -1.6831384388775E-01
    98  9.7000000000000E-01  1.2015370921900E+00 -1.4588024034548E-01
    99  9.8000000000000E-01  1.1955256884388E+00 -1.2192998479581E-01
   100  9.9000000000000E-01  1.1885221898408E+00 -9.6492090931629E-02
   101  1.0000000000000E+00  1.1805190583838E+00 -6.9600417166101E-02
   102  1.0100000000000E+00  1.1715108975749E+00 -4.1293630908185E-02
   103  1.0200000000000E+00  1.1614945177219E+00 -1.1615155422375E-02
   104  1.0300000000000E+00  1.1504689941083E+00  1.9386900810169E-02
   105  1.0400000000000E+00  1.1384357177164E+00  5.1659832240411E-02
   106  1.0500000000000E+00  1.1253984381787E+00  8.5146441848920E-02
   107  1.0600000000000E+00  1.1113632986708E+00  1.1978516405657E-01
   108  1.0700000000000E+00  1.0963388624923E+00  1.5551020473901E-01
   109  1.0800000000000E+00  1.0803361311130E+00  1.9225169806066E-01
   110  1.0900000000000E+00  1.0633685535007E+00  2.2993587976909E-01
   111  1.1000000000000E+00  1.0454520265806E+00  2.6848527651695E-01
   112  1.1100000000000E+00  1.0266048867160E+00  3.0781891070469E-01
   113  1.1200000000000E+00  1.0068478921372E+00  3.4785252026563E-01
   114  1.1300000000000E+00  9.8620419628511E-01  3.8849879274376E-01
   115  1.1400000000000E+00  9.6469931207687E-01  4.2966761294594E-01
   116  1.1500000000000E+00  9.4236106713815E-01  4.7126632338392E-01
   117  1.1600000000000E+00  9.1921955009014E-01  5.1319999665698E-01
   118  1.1700000000000E+00  8.9530704801699E-01  5.5537171886561E-01
   119  1.1800000000000E+00  8.7065797528026E-01  5.9768288308828E-01
   120  1.1900000000000E+00  8.4530879388618E-01  6.4003349189935E-01
   121  1.2000000000000E+00  8.1929792564998E-01  6.8232246785623E-01
   122  1.2100000000000E+00  7.9266565643956E-01  7.2444797083688E-01
   123  1.2200000000000E+00  7.6545403281743E-01  7.6630772106809E-01
   124  1.2300000000000E+00  7.3770675143552E-01  8.0779932664722E-01
   125  1.2400000000000E+00  7.0946904157137E-01  8.4882061432852E-01
   126  1.2500000000000E+00  6.8078754122693E-01  8.8926996231801E-01
   127  1.2600000000000E+00  6.5171016724185E-01  9.2904663379971E-01
   128  1.2700000000000E+00  6.2228597990216E-01  9.6805110989961E-01
   129  1.2800000000000E+00  5.9256504255171E-01  1.0061854207837E+00
   130  1.2900000000000E+00  5.6259827673872E-01  1.0433534735813E+00
   131  1.3000000000000E+00  5.3243731345161E-01  1.0794613758278E+00
   132  1.3100000000000E+00  5.0213434101845E-01  1.1144177531241E+00
   133  1.3200000000000E+00  4.7174195026119E-01  1.1481340597289E+00
   134  1.3300000000000E+00  4.4131297751077E-01  1.1805248808128E+00
   135  1.3400000000000E+00  4.1090034610064E-01  1.2115082251331E+00
   136  1.3500000000000E+00  3.8055690696548E-01  1.2410058069142E+00
   137  1.3600000000000E+00  3.5033527897797E-01  1.2689433157591E+00
   138  1.3700000000000E+00  3.2028768965972E-01  1.2952506734554E+00
   139  1.3800000000000E+00  2.9046581690269E-01  1.3198622765904E+00
   140  1.3900000000000E+00  2.6092063233505E-01  1.3427172239369E+00
   141  1.4000000000000E+00  2.3170224695965E-01  1.3637595276364E+00
   142  1.4100000000000E+00  2.0285975968505E-01  1.3829383072598E+00
   143  1.4200000000000E+00  1.7444110935767E-01  1.4002079659005E+00
   144  1.4300000000000E+00  1.4649293088963E-01  1.4155283475206E+00
   145  1.4400000000000E+00  1.1906041605986E-01  1.4288648748466E+00
   146  1.4500000000000E+00  9.2187179546918E-02  1.4401886671913E+00
   147  1.4600000000000E+00  6.5915130729328E-02  1.4494766376593E+00
   148  1.4700000000000E+00  4.0284351765554E-02  1.4567115692745E+00
   149  1.4800000000000E+00  1.5332982438149E-02  1.4618821696617E+00
   150  1.4900000000000E+00 -8.9028877819100E-03  1.4649831039958E+00
   151  1.5000000000000E+00 -3.2389320025928E-02  1.4660150060277E+00
   152  1.5100000000000E+00 -5.5094618281347E-02  1.4649844670839E+00
   153  1.5200000000000E+00 -7.6989413251634E-02  1.4619040030324E+00
   154  1.5300000000000E+00 -9.8046737501163E-02  1.4567919992961E+00
   155  1.5400000000000E+00 -1.1824209160176E-01  1.4496726340900E+00
   156  1.5500000000000E+00 -1.3755350103618E-01  1.4405757801489E+00
   157  1.5600000000000E+00 -1.5596156365372E-01  1.4295368853018E+00
   158  1.5700000000000E+00 -1.7344948751344E-01  1.4165968323410E+00
   159  1.5800000000000E+00 -1.9000311899167E-01  1.4018017787153E+00
   160  1.5900000000000E+00 -2.0561096107191E-01  1.3852029766678E+00
   161  1.6000000000000E+00 -2.2026418177664E-01  1.3668565745148E+00
   162  1.6100000000000E+00 -2.3395661274236E-01  1.3468233998424E+00
   163  1.6200000000000E+00 -2.4668473798000E-01  1.3251687254736E+00
   164  1.6300000000000E+00 -2.5844767290406E-01  1.3019620191255E+00
   165  1.6400000000000E+00 -2.6924713375351E-01  1.2772766777464E+00
   166  1.6500000000000E+00 -2.7908739756694E-01  1.2511897475799E+00
   167  1.6600000000000E+00 -2.8797525291248E-01  1.2237816310631E+00
   168  1.6700000000000E+00 -2.9591994160972E-01  1.1951357817130E+00
   169  1.6800000000000E+00 -3.0293309171662E-01  1.1653383882056E+00
   170  1.6900000000000E+00 -3.0902864208770E-01  1.1344780488848E+00
   171  1.7000000000000E+00 -3.1422275884242E-01  1.1026454379799E+00
   172  1.7100000000000E+00 -3.1853374411204E-01  1.0699329648300E+00
   173  1.7200000000000E+00 -3.2198193746194E-01  1.0364344274403E+00
   174  1.7300000000000E+00 -3.2458961041174E-01  1.0022446617066E+00
   175  1.7400000000000E+00 -3.2638085449931E-01  9.6745918765409E-01
   176  1.7500000000000E+00 -3.2738146335568E-01  9.3217385403723E-01
   177  1.7600000000000E+00 -3.2761880927666E-01  8.9648448264316E-01
   178  1.7700000000000E+00 -3.2712171479275E-01  8.6048651362906E-01
   179  1.7800000000000E+00 -3.2592031975258E-01  8.2427465320695E-01
   180  1.7900000000000E+00 -3.2404594444555E-01  7.8794252496450E-01
   181  1.8000000000000E+00 -3.2153094929749E-01  7.5158232608098E-01
   182  1.8100000000000E+00 -3.1840859167844E-01  7.1528448966079E-01
   183  1.8200000000000E+00 -3.1471288036407E-01  6.7913735436535E-01
   184  1.8300000000000E+00 -3.1047842819233E-01  6.4322684247653E-01
   185  1.8400000000000E+00 -3.0574030345380E-01  6.0763614747227E-01
   186  1.8500000000000E+00 -3.0053388054906E-01  5.7244543213732E-01
   187  1.8600000000000E+00 -2.9489469043811E-01  5.3773153816952E-01
   188  1.8700000000000E+00 -2.8885827139664E-01  5.0356770817593E-01
   189  1.8800000000000E+00 -2.8246002058082E-01  4.7002332088211E-01
   190  1.8900000000000E+00 -2.7573504688714E-01  4.3716364030411E-01
   191  1.9000000000000E+00 -2.6871802555600E-01  4.0504957946769E-01
   192  1.9100000000000E+00 -2.6144305488810E-01  3.7373747897602E-01
   193  1.9200000000000E+00 -2.5394351781055E-01  3.4327891045094E-01
   194  1.9300000000000E+00 -2.4625193641052E-01  3.1372045358177E-01
   195  1.9400000000000E+00 -2.3839991789297E-01  2.8510386407695E-01
   196  1.9500000000000E+00 -2.3041817229341E-01  2.5746650546289E-01
   197  1.9600000000000E+00 -2.2233649363127E-01  2.3084157291222E-01
   198  1.9700000000000E+00 -2.1418367789412E-01  2.0525802542293E-01
   199  1.9800000000000E+00 -2.0598745787700E-01  1.8074058512528E-01
   200  1.9900000000000E+00 -1.9777444224013E-01  1.5730974508872E-01
   201  2.0000000000000E+00 -1.8957006103267E-01  1.3498179528274E-01
   202  2.0100000000000E+00 -1.8139851774602E-01  1.1376886611396E-01
   203  2.0200000000000E+00 -1.7328274791555E-01  9.3678988904369E-02
   204  2.0300000000000E+00 -1.6524438428442E-01  7.4716172732620E-02
   205  2.0400000000000E+00 -1.5730372850506E-01  5.6880496973535E-02
   206  2.0500000000000E+00 -1.4947972932108E-01  4.0168218804944E-02
   207  2.0600000000000E+00 -1.4178996715638E-01  2.4571894945318E-02
   208  2.0700000000000E+00 -1.3425064498679E-01  1.0080516753996E-02
   209  2.0800000000000E+00 -1.2687658535728E-01 -3.3203421682679E-03
   210  2.0900000000000E+00 -1.1968123337631E-01 -1.5648366801346E-02
   211  2.1000000000000E+00 -1.1267666548445E-01 -2.6924330942890E-02
   212  2.1100000000000E+00 -1.0587360379233E-01 -3.7171917819165E-02
   213  2.1200000000000E+00 -9.9281435739691E-02 -4.6417532123718E-02
   214  2.1300000000000E+00 -9.2908238814775E-02 -5.4690104541408E-02
   215  2.1400000000000E+00 -8.6760810057227E-02 -6.2020889824808E-02
   216  2.1500000000000E+00 -8.0844700054451E-02 -6.8443259492819E-02
   217  2.1600000000000E+00 -7.5164251114008E-02 -7.3992490276125E-02
   218  2.1700000000000E+00 -6.9722639297050E-02 -7.8705549382149E-02
   219  2.1800000000000E+00 -6.4521919977476E-02 -8.2620877686672E-02
   220  2.1900000000000E+00 -5.9563076583300E-02 -8.5778171947239E-02
   221  2.2000000000000E+00 -5.4846072178216E-02 -8.8218167099052E-02
   222  2.2100000000000E+00 -5.0369903529630E-02 -8.9982419696175E-02
   223  2.2200000000000E+00 -4.6132657304363E-02 -9.1113093545993E-02
   224  2.2300000000000E+00 -4.2131568036606E-02 -9.1652748545316E-02
   225  2.2400000000000E+00 -3.8363077518662E-02 -9.1644133681150E-02
   226  2.2500000000000E+00 -3.4822895259768E-02 -9.1129985148438E-02
   227  2.2600000000000E+00 -3.1506059661793E-02 -9.0152830497390E-02
   228  2.2700000000000E+00 -2.8406999572570E-02 -8.8754799664727E-02
   229  2.2800000000000E+00 -2.5519595893382E-02 -8.6977443674239E-02
   230  2.2900000000000E+00 -2.2837242902420E-02 -8.4861561810675E-02
   231  2.3000000000000E+00 -2.0352908993300E-02 -8.2447037939995E-02
   232  2.3100000000000E+00 -1.8059196532147E-02 -7.9772686616073E-02
   233  2.3200000000000E+00 -1.5948400535004E-02 -7.6876109602198E-02
   234  2.3300000000000E+00 -1.4012565909921E-02 -7.3793563290617E-02
   235  2.3400000000000E+00 -1.2243543007922E-02 -7.0559837488697E-02
   236  2.3500000000000E+00 -1.0633041248619E-02 -6.7208145961587E-02
   237  2.3600000000000E+00 -9.1726805962503E-03 -6.3770029080932E-02
   238  2.3700000000000E+00 -7.8540406995039E-03 -6.0275268802842E-02
   239  2.3800000000000E+00 -6.6687075184056E-03 -5.6751816161737E-02
   240  2.3900000000000E+00 -5.6083172791626E-03 -5.3225731406261E-02
   241  2.4000000000000E+00 -4.6645976190337E-03 -4.9721136829303E-02
   242  2.4100000000000E+00 -3.8294058145946E-03 -4.6260182249453E-02
   243  2.4200000000000E+00 -3.0947640063886E-03 -4.2863023039327E-02
   244  2.4300000000000E+00 -2.4528913370992E-03 -3.9547810575716E-02
   245  2.4400000000000E+00 -1.8962329676113E-03 -3.6330694848841E-02
   246  2.4500000000000E+00 -1.4174859481273E-03 -3.3225838929579E-02
   247  2.4600000000000E+00 -1.0096219213313E-03 -3.0245444988445E-02
   248  2.4700000000000E+00 -6.6590669231575E-04 -2.7399791398408E-02
   249  2.4800000000000E+00 -3.7991670045102E-04 -2.4697280452338E-02
   250  2.4900000000000E+00 -1.4555243911780E-04 -2.2144496193856E-02
   251  2.5000000000000E+00  4.2951096079927E-05 -1.9746271765184E-02
   252  2.5100000000000E+00  1.9101683619391E-04 -1.7505765642168E-02
   253  2.5200000000000E+00  3.0372083785913E-04 -1.5424546092254E-02
   254  2.5300000000000E+00  3.8579012504375E-04 -1.3502683139908E-02
   255  2.5400000000000E+00  4.4160303179312E-04 -1.1738847291532E-02
   256  2.5500000000000E+00  4.7519190363921E-04 -1.0130414269102E-02
   257  2.5600000000000E+00  4.9024797925351E-04 -8.6735749176579E-03
   258  2.5700000000000E+00  4.9012827759019E-04 -7.3634494689798E-03
   259  2.5800000000000E+00  4.7786431915067E-04 -6.1942053496672E-03
   260  2.5900000000000E+00  4.5617247416378E-04 -5.1591776478571E-03
   261  2.6000000000000E+00  4.2746649383490E-04 -4.2509925931913E-03
   262  2.6100000000000E+00  3.9386697969121E-04 -3.4616851309601E-03
   263  2.6200000000000E+00  3.5721871737999E-04 -2.7828275648522E-03
   264  2.6300000000000E+00  3.1911392133859E-04 -2.2056652091676E-03
   265  2.6400000000000E+00  2.8089031830236E-04 -1.7212105345669E-03
   266  2.6500000000000E+00  2.4360439095146E-04 -1.3202932391682E-03
   267  2.6600000000000E+00  2.0768166513197E-04 -9.9308739357737E-04
   268  2.6700000000000E+00  1.7341139742231E-04 -7.2998762238241E-04
   269  2.6800000000000E+00  1.4150380398403E-04 -5.2258192210126E-04
   270  2.6900000000000E+00  1.1252631442443E-04 -3.6283275340156E-04
   271  2.7000000000000E+00  8.6825996787025E-05 -2.4302547714365E-04
   272  2.7100000000000E+00  6.4627607989730E-05 -1.5598878209235E-04
   273  2.7200000000000E+00  4.6017039231274E-05 -9.5128250088117E-05
   274  2.7300000000000E+00  3.0959529559137E-05 -5.4508662157012E-05
   275  2.7400000000000E+00  1.9306527304090E-05 -2.8912472832972E-05
   276  2.7500000000000E+00  1.0804877227383E-05 -1.3894401468416E-05
   277  2.7600000000000E+00  5.0962416459715E-06 -5.8057835088655E-06
   278  2.7700000000000E+00  1.7558632860566E-06 -1.9035432931385E-06
   279  2.7800000000000E+00  2.8570103613803E-07 -3.1298092167095E-07
   280  2.7900000000000E+00 -7.3934346724475E-08  1.1892426995900E-07
   281  2.8000000000000E+00 -4.1935504541543E-08  6.2565440090178E-08
   282  2.81  0. -0.
   283  2.82  0. -0.
   284  2.83 -0.  0.
   285  2.84  0. -0.
   286  2.85  0. -0.
   287  2.86  0.  0.
   288  2.87  0.  0.
   289  2.88  0.  0.
   290  2.89  0.  0.
   291  2.90  0.  0.
   292  2.91  0.  0.
   293  2.92  0.  0.
   294  2.93  0.  0.
   295  2.94  0.  0.
   296  2.95  0.  0.
   297  2.96  0.  0.
   298  2.97  0.  0.
   299  2.98  0.  0.
   300  2.99  0.  0.
   301  3.00  0.  0.
   302  3.01  0.  0.
   303  3.02  0.  0.
   304  3.03  0.  0.
   305  3.04  0.  0.
   306  3.05  0.  0.
   307  3.06  0.  0.
   308  3.07  0.  0.
   309  3.08  0.  0.
   310  3.09  0.  0.
   311  3.10  0.  0.
   312  3.11  0.  0.
   313  3.12  0.  0.
   314  3.13  0.  0.
   315  3.14  0.  0.
   316  3.15  0.  0.
   317  3.16  0.  0.
   318  3.17  0.  0.
   319  3.18  0.  0.
   320  3.19  0.  0.
   321  3.20  0.  0.
   322  3.21  0.  0.
   323  3.22  0.  0.
   324  3.23  0.  0.
   325  3.24  0.  0.
   326  3.25  0.  0.
   327  3.26  0.  0.
   328  3.27  0.  0.
   329  3.28  0.  0.
   330  3.29  0.  0.
   331  3.30  0.  0.
   332  3.31  0.  0.
   333  3.32  0.  0.
   334  3.33  0.  0.
   335  3.34  0.  0.
   336  3.35  0.  0.
   337  3.36  0.  0.
   338  3.37  0.  0.
   339  3.38  0.  0.
   340  3.39  0.  0.
   341  3.40  0.  0.
   342  3.41  0.  0.
   343  3.42  0.  0.
   344  3.43  0.  0.
   345  3.44  0.  0.
   346  3.45  0.  0.
   347  3.46  0.  0.
   348  3.47  0.  0.
   349  3.48  0.  0.
   350  3.49  0.  0.
   351  3.50  0.  0.
   352  3.51  0.  0.
   353  3.52  0.  0.
   354  3.53  0.  0.
   355  3.54  0.  0.
   356  3.55  0.  0.
   357  3.56  0.  0.
   358  3.57  0.  0.
   359  3.58  0.  0.
   360  3.59  0.  0.
   361  3.60  0.  0.
   362  3.61  0.  0.
   363  3.62  0.  0.
   364  3.63  0.  0.
   365  3.64  0.  0.
   366  3.65  0.  0.
   367  3.66  0.  0.
   368  3.67  0.  0.
   369  3.68  0.  0.
   370  3.69  0.  0.
   371  3.70  0.  0.
   372  3.71  0.  0.
   373  3.72  0.  0.
   374  3.73  0.  0.
   375  3.74  0.  0.
   376  3.75  0.  0.
   377  3.76  0.  0.
   378  3.77  0.  0.
   379  3.78  0.  0.
   380  3.79  0.  0.
   381  3.80  0.  0.
   382  3.81  0.  0.
   383  3.82  0.  0.
   384  3.83  0.  0.
   385  3.84  0.  0.
   386  3.85  0.  0.
   387  3.86  0.  0.
   388  3.87  0.  0.
   389  3.88  0.  0.
   390  3.89  0.  0.
   391  3.90  0.  0.
   392  3.91  0.  0.
   393  3.92  0.  0.
   394  3.93  0.  0.
   395  3.94  0.  0.
   396  3.95  0.  0.
   397  3.96  0.  0.
   398  3.97  0.  0.
   399  3.98  0.  0.
   400  3.99  0.  0.
   401  4.00  0.  0.
   402  4.01  0.  0.
   403  4.02  0.  0.
   404  4.03  0.  0.
   405  4.04  0.  0.
   406  4.05  0.  0.
   407  4.06  0.  0.
   408  4.07  0.  0.
   409  4.08  0.  0.
   410  4.09  0.  0.
   411  4.10  0.  0.
   412  4.11  0.  0.
   413  4.12  0.  0.
   414  4.13  0.  0.
   415  4.14  0.  0.
   416  4.15  0.  0.
   417  4.16  0.  0.
   418  4.17  0.  0.
   419  4.18  0.  0.
   420  4.19  0.  0.
   421  4.20  0.  0.
   422  4.21  0.  0.
   423  4.22  0.  0.
   424  4.23  0.  0.
   425  4.24  0.  0.
   426  4.25  0.  0.
   427  4.26  0.  0.
   428  4.27  0.  0.
   429  4.28  0.  0.
   430  4.29  0.  0.
   431  4.30  0.  0.
   432  4.31  0.  0.
   433  4.32  0.  0.
   434  4.33  0.  0.
   435  4.34  0.  0.
   436  4.35  0.  0.
   437  4.36  0.  0.
   438  4.37  0.  0.
   439  4.38  0.  0.
   440  4.39  0.  0.
   441  4.40  0.  0.
   442  4.41  0.  0.
   443  4.42  0.  0.
   444  4.43  0.  0.
   445  4.44  0.  0.
   446  4.45  0.  0.
   447  4.46  0.  0.
   448  4.47  0.  0.
   449  4.48  0.  0.
   450  4.49  0.  0.
   451  4.50  0.  0.
   452  4.51  0.  0.
   453  4.52  0.  0.
   454  4.53  0.  0.
   455  4.54  0.  0.
   456  4.55  0.  0.
   457  4.56  0.  0.
   458  4.57  0.  0.
   459  4.58  0.  0.
   460  4.59  0.  0.
   461  4.60  0.  0.
   462  4.61  0.  0.
   463  4.62  0.  0.
   464  4.63  0.  0.
   465  4.64  0.  0.
   466  4.65  0.  0.
   467  4.66  0.  0.
   468  4.67  0.  0.
   469  4.68  0.  0.
   470  4.69  0.  0.
   471  4.70  0.  0.
   472  4.71  0.  0.
   473  4.72  0.  0.
   474  4.73  0.  0.
   475  4.74  0.  0.
   476  4.75  0.  0.
   477  4.76  0.  0.
   478  4.77  0.  0.
   479  4.78  0.  0.
   480  4.79  0.  0.
   481  4.80  0.  0.
   482  4.81  0.  0.
   483  4.82  0.  0.
   484  4.83  0.  0.
   485  4.84  0.  0.
   486  4.85  0.  0.
   487  4.86  0.  0.
   488  4.87  0.  0.
   489  4.88  0.  0.
   490  4.89  0.  0.
   491  4.90  0.  0.
   492  4.91  0.  0.
   493  4.92  0.  0.
   494  4.93  0.  0.
   495  4.94  0.  0.
   496  4.95  0.  0.
   497  4.96  0.  0.
   498  4.97  0.  0.
   499  4.98  0.  0.
   500  4.99  0.  0.
   501  5.00  0.  0.
   502  5.01  0.  0.
   503  5.02  0.  0.
   504  5.03  0.  0.
   505  5.04  0.  0.
   506  5.05  0.  0.
   507  5.06  0.  0.
   508  5.07  0.  0.
   509  5.08  0.  0.
   510  5.09  0.  0.
   511  5.10  0.  0.
   512  5.11  0.  0.
   513  5.12  0.  0.
   514  5.13  0.  0.
   515  5.14  0.  0.
   516  5.15  0.  0.
   517  5.16  0.  0.
   518  5.17  0.  0.
   519  5.18  0.  0.
   520  5.19  0.  0.
   521  5.20  0.  0.
   522  5.21  0.  0.
   523  5.22  0.  0.
   524  5.23  0.  0.
   525  5.24  0.  0.
   526  5.25  0.  0.
   527  5.26  0.  0.
   528  5.27  0.  0.
   529  5.28  0.  0.
   530  5.29  0.  0.
   531  5.30  0.  0.
   532  5.31  0.  0.
   533  5.32  0.  0.
   534  5.33  0.  0.
   535  5.34  0.  0.
   536  5.35  0.  0.
   537  5.36  0.  0.
   538  5.37  0.  0.
   539  5.38  0.  0.
   540  5.39  0.  0.
   541  5.40  0.  0.
   542  5.41  0.  0.
   543  5.42  0.  0.
   544  5.43  0.  0.
   545  5.44  0.  0.
   546  5.45  0.  0.
   547  5.46  0.  0.
   548  5.47  0.  0.
   549  5.48  0.  0.
   550  5.49  0.  0.
   551  5.50  0.  0.
   552  5.51  0.  0.
   553  5.52  0.  0.
   554  5.53  0.  0.
   555  5.54  0.  0.
   556  5.55  0.  0.
   557  5.56  0.  0.
   558  5.57  0.  0.
   559  5.58  0.  0.
   560  5.59  0.  0.
   561  5.60  0.  0.
   562  5.61  0.  0.
   563  5.62  0.  0.
   564  5.63  0.  0.
   565  5.64  0.  0.
   566  5.65  0.  0.
   567  5.66  0.  0.
   568  5.67  0.  0.
   569  5.68  0.  0.
   570  5.69  0.  0.
   571  5.70  0.  0.
   572  5.71  0.  0.
   573  5.72  0.  0.
   574  5.73  0.  0.
   575  5.74  0.  0.
   576  5.75  0.  0.
   577  5.76  0.  0.
   578  5.77  0.  0.
   579  5.78  0.  0.
   580  5.79  0.  0.
   581  5.80  0.  0.
   582  5.81  0.  0.
   583  5.82  0.  0.
   584  5.83  0.  0.
   585  5.84  0.  0.
   586  5.85  0.  0.
   587  5.86  0.  0.
   588  5.87  0.  0.
   589  5.88  0.  0.
   590  5.89  0.  0.
   591  5.90  0.  0.
   592  5.91  0.  0.
   593  5.92  0.  0.
   594  5.93  0.  0.
   595  5.94  0.  0.
   596  5.95  0.  0.
   597  5.96  0.  0.
   598  5.97  0.  0.
   599  5.98  0.  0.
   600  5.99  0.  0.
   1                         3.2052093005872E+00  2.5574749977188E-01
     1  0.0000000000000E+00 -9.9990571378328E-12  3.9109363317302E-11
     2  1.0000000000000E-02  2.4090245655441E-04 -1.1700005549037E-04
     3  2.0000000000000E-02  9.6356820991003E-04 -4.6832832885388E-04
     4  3.0000000000000E-02  2.1678715357169E-03 -1.0549656575574E-03
     5  4.0000000000000E-02  3.8535999804677E-03 -1.8785351802204E-03
     6  5.0000000000000E-02  6.0204500102520E-03 -2.9412850219738E-03
     7  6.0000000000000E-02  8.6680209552070E-03 -4.2460641957523E-03
     8  7.0000000000000E-02  1.1795807285630E-02 -5.7962918604191E-03
     9  8.0000000000000E-02  1.5403189265719E-02 -7.5959201157336E-03
    10  9.0000000000000E-02  1.9489422040620E-02 -9.6493905520748E-03
    11  1.0000000000000E-01  2.4053623221971E-02 -1.1961584810107E-02
    12  1.1000000000000E-01  2.9094759046255E-02 -1.4537769440949E-02
    13  1.2000000000000E-01  3.4611629189076E-02 -1.7383535391807E-02
    14  1.3000000000000E-01  4.0602850326844E-02 -2.0504732474449E-02
    15  1.4000000000000E-01  4.7066838545254E-02 -2.3907399204549E-02
    16  1.5000000000000E-01  5.4001790701437E-02 -2.7597688428691E-02
    17  1.6000000000000E-01  6.1405664853449E-02 -3.1581789182180E-02
    18  1.7000000000000E-01  6.9276159877248E-02 -3.5865845245269E-02
    19  1.8000000000000E-01  7.7610694396897E-02 -4.0455870886931E-02
    20  1.9000000000000E-01  8.6406385158953E-02 -4.5357664304771E-02
    21  2.0000000000000E-01  9.5660024986407E-02 -5.0576719286201E-02
    22  2.1000000000000E-01  1.0536806045133E-01 -5.6118135629839E-02
    23  2.2000000000000E-01  1.1552656940849E-01 -6.1986528877175E-02
    24  2.3000000000000E-01  1.2613123853451E-01 -6.8185939912724E-02
    25  2.4000000000000E-01  1.3717734101891E-01 -7.4719744995958E-02
    26  2.5000000000000E-01  1.4865971455408E-01 -8.1590566790726E-02
    27  2.6000000000000E-01  1.6057273977162E-01 -8.8800186956966E-02
    28  2.7000000000000E-01  1.7291031927174E-01 -9.6349460865717E-02
    29  2.8000000000000E-01  1.8566585739108E-01 -1.0423823499174E-01
    30  2.9000000000000E-01  1.9883224085234E-01 -1.1246526752818E-01
    31  3.0000000000000E-01  2.1240182043624E-01 -1.2102815275499E-01
    32  3.1000000000000E-01  2.2636639381275E-01 -1.2992324967726E-01
    33  3.2000000000000E-01  2.4071718966427E-01 -1.3914561543107E-01
    34  3.3000000000000E-01  2.5544485322876E-01 -1.4868894393331E-01
    35  3.4000000000000E-01  2.7053943338474E-01 -1.5854551022805E-01
    36  3.5000000000000E-01  2.8599037139430E-01 -1.6870612095553E-01
    37  3.6000000000000E-01  3.0178649141320E-01 -1.7916007134125E-01
    38  3.7000000000000E-01  3.1791599286952E-01 -1.8989510907116E-01
    39  3.8000000000000E-01  3.3436644480476E-01 -2.0089740538597E-01
    40  3.9000000000000E-01  3.5112478226226E-01 -2.1215153369228E-01
    41  4.0000000000000E-01  3.6817730479930E-01 -2.2364045595096E-01
    42  4.1000000000000E-01  3.8550967718951E-01 -2.3534551706490E-01
    43  4.2000000000000E-01  4.0310693237259E-01 -2.4724644744769E-01
    44  4.3000000000000E-01  4.2095347669815E-01 -2.5932137391378E-01
    45  4.4000000000000E-01  4.3903309750004E-01 -2.7154683898795E-01