Ti    ONCVPSP-4.0.1  r_core=   2.44814   2.31982   2.25146
     22.0000     12.0000      200312    zatom,zion,pspd
     8      11   2     4   600     0    pspcod,pspxc,lmax,lloc,mmax,r2well
  5.99000000  0.00000000  0.00000000    rchrg fchrg qchrg
     2     2     2     0     0    nproj
     1     1           extension_switch
   0                         2.1393512284540E+00 -1.0572457373532E-01
     1  0.0000000000000E+00 -1.1357081941554E-11 -1.9675461260249E-10
     2  1.0000000000000E-02  5.1421120596888E-02  7.6599064902963E-02
     3  2.0000000000000E-02  1.0276674250855E-01  1.5285810713366E-01
     4  3.0000000000000E-02  1.5396152482208E-01  2.2843882908228E-01
     5  4.0000000000000E-02  2.0493044162715E-01  3.0300637408732E-01
     6  5.0000000000000E-02  2.5559893816524E-01  3.7623102401787E-01
     7  6.0000000000000E-02  3.0589308536433E-01  4.4778986952513E-01
     8  7.0000000000000E-02  3.5573973223433E-01  5.1736844408390E-01
     9  8.0000000000000E-02  4.0506665560977E-01  5.8466231314202E-01
    10  9.0000000000000E-02  4.5380270674048E-01  6.4937860993905E-01
    11  1.0000000000000E-01  5.0187795424738E-01  7.1123750984581E-01
    12  1.1000000000000E-01  5.4922382298003E-01  7.6997363541004E-01
    13  1.2000000000000E-01  5.9577322833391E-01  8.2533738467045E-01
    14  1.3000000000000E-01  6.4146070560939E-01  8.7709617571859E-01
    15  1.4000000000000E-01  6.8622253402019E-01  9.2503560094339E-01
    16  1.5000000000000E-01  7.2999685498720E-01  9.6896048488495E-01
    17  1.6000000000000E-01  7.7272378438293E-01  1.0086958401485E+00
    18  1.7000000000000E-01  8.1434551842343E-01  1.0440877163844E+00
    19  1.8000000000000E-01  8.5480643293693E-01  1.0750039379236E+00
    20  1.9000000000000E-01  8.9405317577235E-01  1.1013347262629E+00
    21  2.0000000000000E-01  9.3203475214577E-01  1.1229932042230E+00
    22  2.1000000000000E-01  9.6870260275832E-01  1.1399157792493E+00
    23  2.2000000000000E-01  1.0040106745551E+00  1.1520624039802E+00
    24  2.3000000000000E-01  1.0379154840315E+00  1.1594167128833E+00
    25  2.4000000000000E-01  1.0703761730287E+00  1.1619860344309E+00
    26  2.5000000000000E-01  1.1013545569984E+00  1.1598012789699E+00
    27  2.6000000000000E-01  1.1308151657507E+00  1.1529167031182E+00
    28  2.7000000000000E-01  1.1587252767351E+00  1.1414095521935E+00
    29  2.8000000000000E-01  1.1850549409407E+00  1.1253795828501E+00
    30  2.9000000000000E-01  1.2097770015323E+00  1.1049484687484E+00
    31  3.0000000000000E-01  1.2328671053732E+00  1.0802590927263E+00
    32  3.1000000000000E-01  1.2543037076172E+00  1.0514747295574E+00
    33  3.2000000000000E-01  1.2740680695773E+00  1.0187781239797E+00
    34  3.3000000000000E-01  1.2921442501124E+00  9.8237046924955E-01
    35  3.4000000000000E-01  1.3085190907912E+00  9.4247029201734E-01
    36  3.5000000000000E-01  1.3231821951223E+00  8.9931224983033E-01
    37  3.6000000000000E-01  1.3361259021556E+00  8.5314584804297E-01
    38  3.7000000000000E-01  1.3473452547821E+00  8.0423408335142E-01
    39  3.8000000000000E-01  1.3568379630710E+00  7.5285202156300E-01
    40  3.9000000000000E-01  1.3646043630012E+00  6.9928531756619E-01
    41  4.0000000000000E-01  1.3706473709514E+00  6.4382868577233E-01
    42  4.1000000000000E-01  1.3749724343212E+00  5.8678432956284E-01
    43  4.2000000000000E-01  1.3775874786632E+00  5.2846033848669E-01
    44  4.3000000000000E-01  1.3785028517046E+00  4.6916906211690E-01
    45  4.4000000000000E-01  1.3777312646401E+00  4.0922546958544E-01
    46  4.5000000000000E-01  1.3752877310720E+00  3.4894550387762E-01
    47  4.6000000000000E-01  1.3711895039681E+00  2.8864443997480E-01
    48  4.7000000000000E-01  1.3654560110005E+00  2.2863525589042E-01
    49  4.8000000000000E-01  1.3581087886151E+00  1.6922702555011E-01
    50  4.9000000000000E-01  1.3491714151704E+00  1.1072334231775E-01
    51  5.0000000000000E-01  1.3386694434653E+00  5.3420781773339E-02
    52  5.1000000000000E-01  1.3266303329603E+00 -2.3925879000118E-03
    53  5.2000000000000E-01  1.3130833819740E+00 -5.6438639857508E-02
    54  5.3000000000000E-01  1.2980596601148E+00 -1.0845055914294E-01
    55  5.4000000000000E-01  1.2815919411865E+00 -1.5817414251487E-01
    56  5.5000000000000E-01  1.2637146367757E+00 -2.0536902064524E-01
    57  5.6000000000000E-01  1.2444637307082E+00 -2.4980979625622E-01
    58  5.7000000000000E-01  1.2238767145304E+00 -2.9128709226814E-01
    59  5.8000000000000E-01  1.2019925241417E+00 -3.2960850457177E-01
    60  5.9000000000000E-01  1.1788514776806E+00 -3.6459945461066E-01
    61  6.0000000000000E-01  1.1544952147297E+00 -3.9610393755858E-01
    62  6.1000000000000E-01  1.1289666368826E+00 -4.2398516250129E-01
    63  6.2000000000000E-01  1.1023098496804E+00 -4.4812608167587E-01
    64  6.3000000000000E-01  1.0745701059011E+00 -4.6842980648183E-01
    65  6.4000000000000E-01  1.0457937501526E+00 -4.8481990865102E-01
    66  6.5000000000000E-01  1.0160281646955E+00 -4.9724060564581E-01
    67  6.6000000000000E-01  9.8532171639493E-01 -5.0565683004017E-01
    68  6.7000000000000E-01  9.5372370467459E-01 -5.1005418332529E-01
    69  6.8000000000000E-01  9.2128431032357E-01 -5.1043877526271E-01
    70  6.9000000000000E-01  8.8805454498576E-01 -5.0683695058169E-01
    71  7.0000000000000E-01  8.5408620114084E-01 -4.9929490547922E-01
    72  7.1000000000000E-01  8.1943180236980E-01 -4.8787819702543E-01
    73  7.2000000000000E-01  7.8414455368239E-01 -4.7267114920101E-01
    74  7.3000000000000E-01  7.4827829167224E-01 -4.5377615989342E-01
    75  7.4000000000000E-01  7.1188743425557E-01 -4.3131291374984E-01
    76  7.5000000000000E-01  6.7502692974283E-01 -4.0541750632434E-01
    77  7.6000000000000E-01  6.3775220498903E-01 -3.7624148546163E-01
    78  7.7000000000000E-01  6.0011911236747E-01 -3.4395081632555E-01
    79  7.8000000000000E-01  5.6218387531437E-01 -3.0872477690578E-01
    80  7.9000000000000E-01  5.2400303219675E-01 -2.7075479121695E-01
    81  8.0000000000000E-01  4.8563337826501E-01 -2.3024320773914E-01
    82  8.1000000000000E-01  4.4713190546268E-01 -1.8740203093516E-01
    83  8.2000000000000E-01  4.0855573988091E-01 -1.4245161391587E-01
    84  8.3000000000000E-01  3.6996207666233E-01 -9.5619320508970E-02
    85  8.4000000000000E-01  3.3140811217959E-01 -4.7138165119241E-02
    86  8.5000000000000E-01  2.9295097333706E-01  2.7545611555857E-03
    87  8.6000000000000E-01  2.5464764386958E-01  5.3818669663387E-02
    88  8.7000000000000E-01  2.1655488754046E-01  1.0581245013232E-01
    89  8.8000000000000E-01  1.7872916817131E-01  1.5849403502662E-01
    90  8.9000000000000E-01  1.4122656646854E-01  2.1162274408659E-01
    91  9.0000000000000E-01  1.0410269364536E-01  2.6496040100477E-01
    92  9.1000000000000E-01  6.7412601874130E-02  3.1827261443137E-01
    93  9.2000000000000E-01  3.1210691640424E-02  3.7133001579201E-01
    94  9.3000000000000E-01 -4.4493838917180E-03  4.2390944673745E-01
    95  9.4000000000000E-01 -3.9514817355330E-02  4.7579508942795E-01
    96  9.5000000000000E-01 -7.3933748309941E-02  5.2677953327872E-01
    97  9.6000000000000E-01 -1.0765536679895E-01  5.7666477225721E-01
    98  9.7000000000000E-01 -1.4063001907025E-01  6.2526312732378E-01
    99  9.8000000000000E-01 -1.7280931515723E-01  6.7239808913952E-01
   100  9.9000000000000E-01 -2.0414623798015E-01  7.1790507672842E-01
   101  1.0000000000000E+00 -2.3459525359168E-01  7.6163210836896E-01
   102  1.0100000000000E+00 -2.6411242215617E-01  8.0344038159868E-01
   103  1.0200000000000E+00 -2.9265550921939E-01  8.4320475984357E-01
   104  1.0300000000000E+00 -3.2018409679532E-01  8.8081416382263E-01
   105  1.0400000000000E+00 -3.4665969376858E-01  9.1617186652722E-01
   106  1.0500000000000E+00 -3.7204584508581E-01  9.4919569122740E-01
   107  1.0600000000000E+00 -3.9630823918732E-01  9.7981811261070E-01
   108  1.0700000000000E+00 -4.1941481311152E-01  1.0079862618066E+00
   109  1.0800000000000E+00 -4.4133585468905E-01  1.0336618366901E+00
   110  1.0900000000000E+00 -4.6204410123215E-01  1.0568209194834E+00
   111  1.1000000000000E+00 -4.8151483411689E-01  1.0774537042851E+00
   112  1.1100000000000E+00 -4.9972596865213E-01  1.0955641377424E+00
   113  1.1200000000000E+00 -5.1665813862965E-01  1.1111694766453E+00
   114  1.1300000000000E+00 -5.3229477495444E-01  1.1242997667552E+00
   115  1.1400000000000E+00 -5.4662217776324E-01  1.1349972476800E+00
   116  1.1500000000000E+00 -5.5962958145275E-01  1.1433156890746E+00
   117  1.1600000000000E+00 -5.7130921205676E-01  1.1493196638704E+00
   118  1.1700000000000E+00 -5.8165633643334E-01  1.1530837646231E+00
   119  1.1800000000000E+00 -5.9066930274980E-01  1.1546917694091E+00
   120  1.1900000000000E+00 -5.9834957178329E-01  1.1542357639944E+00
   121  1.2000000000000E+00 -6.0470173858998E-01  1.1518152272488E+00
   122  1.2100000000000E+00 -6.0973354413344E-01  1.1475360869741E+00
   123  1.2200000000000E+00 -6.1345587650569E-01  1.1415097534646E+00
   124  1.2300000000000E+00 -6.1588276141944E-01  1.1338521382127E+00
   125  1.2400000000000E+00 -6.1703134169892E-01  1.1246826652193E+00
   126  1.2500000000000E+00 -6.1692184554860E-01  1.1141232823634E+00
   127  1.2600000000000E+00 -6.1557754343302E-01  1.1022974802251E+00
   128  1.2700000000000E+00 -6.1302469345794E-01  1.0893293256541E+00
   129  1.2800000000000E+00 -6.0929247520128E-01  1.0753425172169E+00
   130  1.2900000000000E+00 -6.0441291200253E-01  1.0604594694533E+00
   131  1.3000000000000E+00 -5.9842078178054E-01  1.0448004326246E+00
   132  1.3100000000000E+00 -5.9135351651175E-01  1.0284826543429E+00
   133  1.3200000000000E+00 -5.8325109056319E-01  1.0116195891376E+00
   134  1.3300000000000E+00 -5.7415589813692E-01  9.9432016164431E-01
   135  1.3400000000000E+00 -5.6411262014466E-01  9.7668808869119E-01
   136  1.3500000000000E+00 -5.5316808089211E-01  9.5882126512197E-01
   137  1.3600000000000E+00 -5.4137109501197E-01  9.4081121772491E-01
   138  1.3700000000000E+00 -5.2877230514281E-01  9.2274263114253E-01
   139  1.3800000000000E+00 -5.1542401090626E-01  9.0469294912494E-01
   140  1.3900000000000E+00 -5.0137998978831E-01  8.8673205395392E-01
   141  1.4000000000000E+00 -4.8669531058040E-01  8.6892202632355E-01
   142  1.4100000000000E+00 -4.7142614008267E-01  8.5131698740399E-01
   143  1.4200000000000E+00 -4.5562954381505E-01  8.3396302425728E-01
   144  1.4300000000000E+00 -4.3936328152042E-01  8.1689819921149E-01
   145  1.4400000000000E+00 -4.2268559827898E-01  8.0015264324076E-01
   146  1.4500000000000E+00 -4.0565501208289E-01  7.8374873284850E-01
   147  1.4600000000000E+00 -3.8833009874530E-01  7.6770134940791E-01
   148  1.4700000000000E+00 -3.7076927503793E-01  7.5201821938968E-01
   149  1.4800000000000E+00 -3.5303058096624E-01  7.3670033339755E-01
   150  1.4900000000000E+00 -3.3517146210046E-01  7.2174244144777E-01
   151  1.5000000000000E+00 -3.1724855288450E-01  7.0713362146578E-01
   152  1.5100000000000E+00 -2.9931746184323E-01  6.9285791754257E-01
   153  1.5200000000000E+00 -2.8143255960099E-01  6.7889504409049E-01
   154  1.5300000000000E+00 -2.6364677061129E-01  6.6522115167042E-01
   155  1.5400000000000E+00 -2.4601136947917E-01  6.5180964992962E-01
   156  1.5500000000000E+00 -2.2857578273340E-01  6.3863208279584E-01
   157  1.5600000000000E+00 -2.1138739687664E-01  6.2565905081827E-01
   158  1.5700000000000E+00 -1.9449137350682E-01  6.1286117533137E-01
   159  1.5800000000000E+00 -1.7793047226371E-01  6.0021009894568E-01
   160  1.5900000000000E+00 -1.6174488231009E-01  5.8767951674062E-01
   161  1.6000000000000E+00 -1.4597206300862E-01  5.7524623244664E-01
   162  1.6100000000000E+00 -1.3064659439079E-01  5.6289123411268E-01
   163  1.6200000000000E+00 -1.1580003802141E-01  5.5060078231383E-01
   164  1.6300000000000E+00 -1.0146080867734E-01  5.3836750706300E-01
   165  1.6400000000000E+00 -8.7654082717118E-02  5.2619094354726E-01
   166  1.6500000000000E+00 -7.4401978660846E-02  5.1407248753149E-01
   167  1.6600000000000E+00 -6.1723790815047E-02  5.0201019265574E-01
   168  1.6700000000000E+00 -4.9636009492510E-02  4.8999893691522E-01
   169  1.6800000000000E+00 -3.8152329413836E-02  4.7803109061435E-01
   170  1.6900000000000E+00 -2.7283669088472E-02  4.6609715648186E-01
   171  1.7000000000000E+00 -1.7038201036989E-02  4.5418638000268E-01
   172  1.7100000000000E+00 -7.4213928953847E-03  4.4228732352858E-01
   173  1.7200000000000E+00  1.5639407892882E-03  4.3038840165097E-01
   174  1.7300000000000E+00  9.9175762971900E-03  4.1847837500161E-01
   175  1.7400000000000E+00  1.7641808281645E-02  4.0654679974510E-01
   176  1.7500000000000E+00  2.4741367482225E-02  3.9458443089013E-01
   177  1.7600000000000E+00  3.1223329003259E-02  3.8258357755113E-01
   178  1.7700000000000E+00  3.7097011625081E-02  3.7053840894144E-01
   179  1.7800000000000E+00  4.2373868677687E-02  3.5844521043532E-01
   180  1.7900000000000E+00  4.7067371039115E-02  3.4630258912238E-01
   181  1.8000000000000E+00  5.1192882885653E-02  3.3411162900747E-01
   182  1.8100000000000E+00  5.4767530865171E-02  3.2187599642110E-01
   183  1.8200000000000E+00  5.7810067396374E-02  3.0960199646370E-01
   184  1.8300000000000E+00  6.0340728843732E-02  2.9729858189658E-01
   185  1.8400000000000E+00  6.2381089346425E-02  2.8497731622857E-01
   186  1.8500000000000E+00  6.3953911108856E-02  2.7265229315185E-01
   187  1.8600000000000E+00  6.5082991987006E-02  2.6034001490872E-01
   188  1.8700000000000E+00  6.5793011214814E-02  2.4805923237874E-01
   189  1.8800000000000E+00  6.6109374138640E-02  2.3583075017439E-01
   190  1.8900000000000E+00  6.6058056834447E-02  2.2367720030266E-01
   191  1.9000000000000E+00  6.5665451477667E-02  2.1162278809183E-01
   192  1.9100000000000E+00  6.4958213339168E-02  1.9969301442455E-01
   193  1.9200000000000E+00  6.3963110278731E-02  1.8791437860047E-01
   194  1.9300000000000E+00  6.2706875579519E-02  1.7631406609463E-01
   195  1.9400000000000E+00  6.1216064956706E-02  1.6491962573456E-01
   196  1.9500000000000E+00  5.9516918548623E-02  1.5375864089817E-01
   197  1.9600000000000E+00  5.7635228658492E-02  1.4285839921687E-01
   198  1.9700000000000E+00  5.5596213991288E-02  1.3224556544983E-01
   199  1.9800000000000E+00  5.3424401070876E-02  1.2194586184766E-01
   200  1.9900000000000E+00  5.1143513482653E-02  1.1198376035108E-01
   201  2.0000000000000E+00  4.8776369536574E-02  1.0238219081438E-01
   202  2.0100000000000E+00  4.6344788873616E-02  9.3162269033674E-02
   203  2.0200000000000E+00  4.3869508478481E-02  8.4343048128431E-02
   204  2.0300000000000E+00  4.1370108500388E-02  7.5941296622617E-02
   205  2.0400000000000E+00  3.8864948190180E-02  6.7971305855534E-02
   206  2.0500000000000E+00  3.6371112210343E-02  6.0444729337375E-02
   207  2.0600000000000E+00  3.3904367470147E-02  5.3370455831227E-02
   208  2.0700000000000E+00  3.1479130565043E-02  4.6754517588826E-02
   209  2.0800000000000E+00  2.9108445819733E-02  4.0600034719872E-02
   210  2.0900000000000E+00  2.6803973846816E-02  3.4907196106397E-02
   211  2.1000000000000E+00  2.4575990442729E-02  2.9673276628149E-02
   212  2.1100000000000E+00  2.2433395562080E-02  2.4892690029270E-02
   213  2.1200000000000E+00  2.0383732040808E-02  2.0557076327526E-02
   214  2.1300000000000E+00  1.8433213652028E-02  1.6655422074600E-02
   215  2.1400000000000E+00  1.6586761996392E-02  1.3174211190740E-02
   216  2.1500000000000E+00  1.4848051691922E-02  1.0097604074221E-02
   217  2.1600000000000E+00  1.3219563229883E-02  7.4076418715249E-03
   218  2.1700000000000E+00  1.1702642835372E-02  5.0844727921520E-03
   219  2.1800000000000E+00  1.0297568620151E-02  3.1065970785704E-03
   220  2.1900000000000E+00  9.0036222640335E-03  1.4511268504667E-03
   221  2.2000000000000E+00  7.8191654445528E-03  9.4057151721907E-05
   222  2.2100000000000E+00  6.7417202136910E-03 -9.8945554228592E-04
   223  2.2200000000000E+00  5.7680525046147E-03 -1.8248111224617E-03
   224  2.2300000000000E+00  4.8942579425274E-03 -2.4376837049446E-03
   225  2.2400000000000E+00  4.1158491475489E-03 -2.8537430312044E-03
   226  2.2500000000000E+00  3.4278437331718E-03 -3.0983826675780E-03
   227  2.2600000000000E+00  2.8248522191582E-03 -3.1964580928406E-03
   228  2.2700000000000E+00  2.3011650969430E-03 -3.1720375791375E-03
   229  2.2800000000000E+00  1.8508383919006E-03 -3.0481661166154E-03
   230  2.2900000000000E+00  1.4677767639477E-03 -2.8466552356161E-03
   231  2.3000000000000E+00  1.1458132736959E-03 -2.5879082724702E-03
   232  2.3100000000000E+00  8.7879002010264E-04 -2.2906112405352E-03
   233  2.3200000000000E+00  6.6062397132092E-04 -1.9718090188938E-03
   234  2.3300000000000E+00  4.8535030466321E-04 -1.6478061879830E-03
   235  2.3400000000000E+00  3.4711933902009E-04 -1.3368647936547E-03
   236  2.3500000000000E+00  2.4047289223820E-04 -1.0505199369182E-03
   237  2.3600000000000E+00  1.6036699705748E-04 -7.9446173331404E-04
   238  2.3700000000000E+00  1.0208456376652E-04 -5.7350800469581E-04
   239  2.3800000000000E+00  6.1309464646747E-05 -3.9039409642061E-04
   240  2.3900000000000E+00  3.4156963894336E-05 -2.4594187390739E-04
   241  2.4000000000000E+00  1.7202971620573E-05 -1.3904338227613E-04
   242  2.4100000000000E+00  7.5055828641415E-06 -6.6683393183788E-05
   243  2.4200000000000E+00  2.6204764476775E-06 -2.4104922825053E-05
   244  2.4300000000000E+00  6.0913066233504E-07 -4.6565929464730E-06
   245  2.4400000000000E+00  3.5300795170587E-08  2.2335190390838E-07
   246  2.4500000000000E+00 -1.8849701638829E-08 -2.8029789926555E-07
   247  2.4600000000000E+00 -8.7959465864423E-10 -1.5366692447409E-07
   248  2.47  0.  0.
   249  2.48 -0. -0.
   250  2.49 -0. -0.
   251  2.50  0.  0.
   252  2.51  0.  0.
   253  2.52  0.  0.
   254  2.53  0.  0.
   255  2.54  0.  0.
   256  2.55  0.  0.
   257  2.56  0.  0.
   258  2.57  0.  0.
   259  2.58  0.  0.
   260  2.59  0.  0.
   261  2.60  0.  0.
   262  2.61  0.  0.
   263  2.62  0.  0.
   264  2.63  0.  0.
   265  2.64  0.  0.
   266  2.65  0.  0.
   267  2.66  0.  0.
   268  2.67  0.  0.
   269  2.68  0.  0.
   270  2.69  0.  0.
   271  2.70  0.  0.
   272  2.71  0.  0.
   273  2.72  0.  0.
   274  2.73  0.  0.
   275  2.74  0.  0.
   276  2.75  0.  0.
   277  2.76  0.  0.
   278  2.77  0.  0.
   279  2.78  0.  0.
   280  2.79  0.  0.
   281  2.80  0.  0.
   282  2.81  0.  0.
   283  2.82  0.  0.
   284  2.83  0.  0.
   285  2.84  0.  0.
   286  2.85  0.  0.
   287  2.86  0.  0.
   288  2.87  0.  0.
   289  2.88  0.  0.
   290  2.89  0.  0.
   291  2.90  0.  0.
   292  2.91  0.  0.
   293  2.92  0.  0.
   294  2.93  0.  0.
   295  2.94  0.  0.
   296  2.95  0.  0.
   297  2.96  0.  0.
   298  2.97  0.  0.
   299  2.98  0.  0.
   300  2.99  0.  0.
   301  3.00  0.  0.
   302  3.01  0.  0.
   303  3.02  0.  0.
   304  3.03  0.  0.
   305  3.04  0.  0.
   306  3.05  0.  0.
   307  3.06  0.  0.
   308  3.07  0.  0.
   309  3.08  0.  0.
   310  3.09  0.  0.
   311  3.10  0.  0.
   312  3.11  0.  0.
   313  3.12  0.  0.
   314  3.13  0.  0.
   315  3.14  0.  0.
   316  3.15  0.  0.
   317  3.16  0.  0.
   318  3.17  0.  0.
   319  3.18  0.  0.
   320  3.19  0.  0.
   321  3.20  0.  0.
   322  3.21  0.  0.
   323  3.22  0.  0.
   324  3.23  0.  0.
   325  3.24  0.  0.
   326  3.25  0.  0.
   327  3.26  0.  0.
   328  3.27  0.  0.
   329  3.28  0.  0.
   330  3.29  0.  0.
   331  3.30  0.  0.
   332  3.31  0.  0.
   333  3.32  0.  0.
   334  3.33  0.  0.
   335  3.34  0.  0.
   336  3.35  0.  0.
   337  3.36  0.  0.
   338  3.37  0.  0.
   339  3.38  0.  0.
   340  3.39  0.  0.
   341  3.40  0.  0.
   342  3.41  0.  0.
   343  3.42  0.  0.
   344  3.43  0.  0.
   345  3.44  0.  0.
   346  3.45  0.  0.
   347  3.46  0.  0.
   348  3.47  0.  0.
   349  3.48  0.  0.
   350  3.49  0.  0.
   351  3.50  0.  0.
   352  3.51  0.  0.
   353  3.52  0.  0.
   354  3.53  0.  0.
   355  3.54  0.  0.
   356  3.55  0.  0.
   357  3.56  0.  0.
   358  3.57  0.  0.
   359  3.58  0.  0.
   360  3.59  0.  0.
   361  3.60  0.  0.
   362  3.61  0.  0.
   363  3.62  0.  0.
   364  3.63  0.  0.
   365  3.64  0.  0.
   366  3.65  0.  0.
   367  3.66  0.  0.
   368  3.67  0.  0.
   369  3.68  0.  0.
   370  3.69  0.  0.
   371  3.70  0.  0.
   372  3.71  0.  0.
   373  3.72  0.  0.
   374  3.73  0.  0.
   375  3.74  0.  0.
   376  3.75  0.  0.
   377  3.76  0.  0.
   378  3.77  0.  0.
   379  3.78  0.  0.
   380  3.79  0.  0.
   381  3.80  0.  0.
   382  3.81  0.  0.
   383  3.82  0.  0.
   384  3.83  0.  0.
   385  3.84  0.  0.
   386  3.85  0.  0.
   387  3.86  0.  0.
   388  3.87  0.  0.
   389  3.88  0.  0.
   390  3.89  0.  0.
   391  3.90  0.  0.
   392  3.91  0.  0.
   393  3.92  0.  0.
   394  3.93  0.  0.
   395  3.94  0.  0.
   396  3.95  0.  0.
   397  3.96  0.  0.
   398  3.97  0.  0.
   399  3.98  0.  0.
   400  3.99  0.  0.
   401  4.00  0.  0.
   402  4.01  0.  0.
   403  4.02  0.  0.
   404  4.03  0.  0.
   405  4.04  0.  0.
   406  4.05  0.  0.
   407  4.06  0.  0.
   408  4.07  0.  0.
   409  4.08  0.  0.
   410  4.09  0.  0.
   411  4.10  0.  0.
   412  4.11  0.  0.
   413  4.12  0.  0.
   414  4.13  0.  0.
   415  4.14  0.  0.
   416  4.15  0.  0.
   417  4.16  0.  0.
   418  4.17  0.  0.
   419  4.18  0.  0.
   420  4.19  0.  0.
   421  4.20  0.  0.
   422  4.21  0.  0.
   423  4.22  0.  0.
   424  4.23  0.  0.
   425  4.24  0.  0.
   426  4.25  0.  0.
   427  4.26  0.  0.
   428  4.27  0.  0.
   429  4.28  0.  0.
   430  4.29  0.  0.
   431  4.30  0.  0.
   432  4.31  0.  0.
   433  4.32  0.  0.
   434  4.33  0.  0.
   435  4.34  0.  0.
   436  4.35  0.  0.
   437  4.36  0.  0.
   438  4.37  0.  0.
   439  4.38  0.  0.
   440  4.39  0.  0.
   441  4.40  0.  0.
   442  4.41  0.  0.
   443  4.42  0.  0.
   444  4.43  0.  0.
   445  4.44  0.  0.
   446  4.45  0.  0.
   447  4.46  0.  0.
   448  4.47  0.  0.
   449  4.48  0.  0.
   450  4.49  0.  0.
   451  4.50  0.  0.
   452  4.51  0.  0.
   453  4.52  0.  0.
   454  4.53  0.  0.
   455  4.54  0.  0.
   456  4.55  0.  0.
   457  4.56  0.  0.
   458  4.57  0.  0.
   459  4.58  0.  0.
   460  4.59  0.  0.
   461  4.60  0.  0.
   462  4.61  0.  0.
   463  4.62  0.  0.
   464  4.63  0.  0.
   465  4.64  0.  0.
   466  4.65  0.  0.
   467  4.66  0.  0.
   468  4.67  0.  0.
   469  4.68  0.  0.
   470  4.69  0.  0.
   471  4.70  0.  0.
   472  4.71  0.  0.
   473  4.72  0.  0.
   474  4.73  0.  0.
   475  4.74  0.  0.
   476  4.75  0.  0.
   477  4.76  0.  0.
   478  4.77  0.  0.
   479  4.78  0.  0.
   480  4.79  0.  0.
   481  4.80  0.  0.
   482  4.81  0.  0.
   483  4.82  0.  0.
   484  4.83  0.  0.
   485  4.84  0.  0.
   486  4.85  0.  0.
   487  4.86  0.  0.
   488  4.87  0.  0.
   489  4.88  0.  0.
   490  4.89  0.  0.
   491  4.90  0.  0.
   492  4.91  0.  0.
   493  4.92  0.  0.
   494  4.93  0.  0.
   495  4.94  0.  0.
   496  4.95  0.  0.
   497  4.96  0.  0.
   498  4.97  0.  0.
   499  4.98  0.  0.
   500  4.99  0.  0.
   501  5.00  0.  0.
   502  5.01  0.  0.
   503  5.02  0.  0.
   504  5.03  0.  0.
   505  5.04  0.  0.
   506  5.05  0.  0.
   507  5.06  0.  0.
   508  5.07  0.  0.
   509  5.08  0.  0.
   510  5.09  0.  0.
   511  5.10  0.  0.
   512  5.11  0.  0.
   513  5.12  0.  0.
   514  5.13  0.  0.
   515  5.14  0.  0.
   516  5.15  0.  0.
   517  5.16  0.  0.
   518  5.17  0.  0.
   519  5.18  0.  0.
   520  5.19  0.  0.
   521  5.20  0.  0.
   522  5.21  0.  0.
   523  5.22  0.  0.
   524  5.23  0.  0.
   525  5.24  0.  0.
   526  5.25  0.  0.
   527  5.26  0.  0.
   528  5.27  0.  0.
   529  5.28  0.  0.
   530  5.29  0.  0.
   531  5.30  0.  0.
   532  5.31  0.  0.
   533  5.32  0.  0.
   534  5.33  0.  0.
   535  5.34  0.  0.
   536  5.35  0.  0.
   537  5.36  0.  0.
   538  5.37  0.  0.
   539  5.38  0.  0.
   540  5.39  0.  0.
   541  5.40  0.  0.
   542  5.41  0.  0.
   543  5.42  0.  0.
   544  5.43  0.  0.
   545  5.44  0.  0.
   546  5.45  0.  0.
   547  5.46  0.  0.
   548  5.47  0.  0.
   549  5.48  0.  0.
   550  5.49  0.  0.
   551  5.50  0.  0.
   552  5.51  0.  0.
   553  5.52  0.  0.
   554  5.53  0.  0.
   555  5.54  0.  0.
   556  5.55  0.  0.
   557  5.56  0.  0.
   558  5.57  0.  0.
   559  5.58  0.  0.
   560  5.59  0.  0.
   561  5.60  0.  0.
   562  5.61  0.  0.
   563  5.62  0.  0.
   564  5.63  0.  0.
   565  5.64  0.  0.
   566  5.65  0.  0.
   567  5.66  0.  0.
   568  5.67  0.  0.
   569  5.68  0.  0.
   570  5.69  0.  0.
   571  5.70  0.  0.
   572  5.71  0.  0.
   573  5.72  0.  0.
   574  5.73  0.  0.
   575  5.74  0.  0.
   576  5.75  0.  0.
   577  5.76  0.  0.
   578  5.77  0.  0.
   579  5.78  0.  0.
   580  5.79  0.  0.
   581  5.80  0.  0.
   582  5.81  0.  0.
   583  5.82  0.  0.
   584  5.83  0.  0.
   585  5.84  0.  0.
   586  5.85  0.  0.
   587  5.86  0.  0.
   588  5.87  0.  0.
   589  5.88  0.  0.
   590  5.89  0.  0.
   591  5.90  0.  0.
   592  5.91  0.  0.
   593  5.92  0.  0.
   594  5.93  0.  0.
   595  5.94  0.  0.
   596  5.95  0.  0.
   597  5.96  0.  0.
   598  5.97  0.  0.
   599  5.98  0.  0.
   600  5.99  0.  0.
   1                        -1.1134917384399E+00 -2.6245401631320E-01
     1  0.0000000000000E+00  5.6904956441395E-11 -4.8753848354288E-10
     2  1.0000000000000E-02  4.0835426319703E-04 -1.9576934609973E-04
     3  2.0000000000000E-02  1.6329562213531E-03 -7.8125571418072E-04
     4  3.0000000000000E-02  3.6724255149301E-03 -1.7510172235371E-03
     5  4.0000000000000E-02  6.5244686292514E-03 -3.0960609076256E-03
     6  5.0000000000000E-02  1.0185889412107E-02 -4.8039570417574E-03
     7  6.0000000000000E-02  1.4652603581158E-02 -6.8589973623276E-03
     8  7.0000000000000E-02  1.9919657007062E-02 -9.2423953607815E-03
     9  8.0000000000000E-02  2.5981247501329E-02 -1.1932526347974E-02
    10  9.0000000000000E-02  3.2830749784290E-02 -1.4905204520149E-02
    11  1.0000000000000E-01  4.0460743258797E-02 -1.8133993822249E-02
    12  1.1000000000000E-01  4.8863042169897E-02 -2.1590549000586E-02
    13  1.2000000000000E-01  5.8028727690429E-02 -2.5244982870438E-02
    14  1.3000000000000E-01  6.7948181437693E-02 -2.9066255498004E-02
    15  1.4000000000000E-01  7.8611119897533E-02 -3.3022580714539E-02
    16  1.5000000000000E-01  9.0006629209785E-02 -3.7081845145483E-02
    17  1.6000000000000E-01  1.0212319975331E-01 -4.1212034752367E-02
    18  1.7000000000000E-01  1.1494875996018E-01 -4.5381663752390E-02
    19  1.8000000000000E-01  1.2847070878708E-01 -4.9560200700767E-02
    20  1.9000000000000E-01  1.4267594627764E-01 -5.3718486495964E-02
    21  2.0000000000000E-01  1.5755090166282E-01 -5.7829139098724E-02
    22  2.1000000000000E-01  1.7308155846667E-01 -6.1866939841031E-02
    23  2.2000000000000E-01  1.8925347611266E-01 -6.5809196342334E-02
    24  2.3000000000000E-01  2.0605180756044E-01 -6.9636077245077E-02
    25  2.4000000000000E-01  2.2346131254429E-01 -7.3330914228645E-02
    26  2.5000000000000E-01  2.4146636603271E-01 -7.6880467058914E-02
    27  2.6000000000000E-01  2.6005096158239E-01 -8.0275147776140E-02
    28  2.7000000000000E-01  2.7919870931932E-01 -8.3509200514874E-02
    29  2.8000000000000E-01  2.9889282834467E-01 -8.6580833882011E-02
    30  2.9000000000000E-01  3.1911613343183E-01 -8.9492303288990E-02
    31  3.0000000000000E-01  3.3985101595391E-01 -9.2249941137870E-02
    32  3.1000000000000E-01  3.6107941905707E-01 -9.4864133293206E-02
    33  3.2000000000000E-01  3.8278280717313E-01 -9.7349240828026E-02
    34  3.3000000000000E-01  4.0494213004474E-01 -9.9723466606978E-02
    35  3.4000000000000E-01  4.2753778151727E-01 -1.0200866685781E-01
    36  3.5000000000000E-01  4.5054955343166E-01 -1.0423010847810E-01
    37  3.6000000000000E-01  4.7395658503256E-01 -1.0641617342161E-01
    38  3.7000000000000E-01  4.9773730838341E-01 -1.0859801210203E-01
    39  3.8000000000000E-01  5.2186939035586E-01 -1.1080914833567E-01
    40  3.9000000000000E-01  5.4632967183210E-01 -1.1308503891231E-01
    41  4.0000000000000E-01  5.7109410482665E-01 -1.1546259142993E-01
    42  4.1000000000000E-01  5.9613768829603E-01 -1.1797964454831E-01
    43  4.2000000000000E-01  6.2143440346149E-01 -1.2067441530321E-01
    44  4.3000000000000E-01  6.4695714951985E-01 -1.2358491857188E-01
    45  4.4000000000000E-01  6.7267768065985E-01 -1.2674836418706E-01
    46  4.5000000000000E-01  6.9856654533657E-01 -1.3020053755590E-01
    47  4.6000000000000E-01  7.2459302878230E-01 -1.3397516994793E-01
    48  4.7000000000000E-01  7.5072509974989E-01 -1.3810330486947E-01
    49  4.8000000000000E-01  7.7692936249246E-01 -1.4261266713559E-01
    50  4.9000000000000E-01  8.0317101498164E-01 -1.4752704138484E-01
    51  5.0000000000000E-01  8.2941381435489E-01 -1.5286566685141E-01
    52  5.1000000000000E-01  8.5562005056066E-01 -1.5864265521437E-01
    53  5.2000000000000E-01  8.8175052913833E-01 -1.6486643828307E-01
    54  5.3000000000000E-01  9.0776456402755E-01 -1.7153925214924E-01
    55  5.4000000000000E-01  9.3361998124985E-01 -1.7865666424299E-01
    56  5.5000000000000E-01  9.5927313424310E-01 -1.8620714946961E-01
    57  5.6000000000000E-01  9.8467893155828E-01 -1.9417172128042E-01
    58  5.7000000000000E-01  1.0097908775472E+00 -2.0252362314426E-01
    59  5.8000000000000E-01  1.0345611265808E+00 -2.1122808544058E-01
    60  5.9000000000000E-01  1.0589405512412E+00 -2.2024215229236E-01
    61  6.0000000000000E-01  1.0828788248238E+00 -2.2951458230240E-01
    62  6.1000000000000E-01  1.1063245183787E+00 -2.3898582655247E-01
    63  6.2000000000000E-01  1.1292252123993E+00 -2.4858808657867E-01
    64  6.3000000000000E-01  1.1515276231478E+00 -2.5824545435022E-01
    65  6.4000000000000E-01  1.1731777434803E+00 -2.6787413556188E-01
    66  6.5000000000000E-01  1.1941209979045E+00 -2.7738275680599E-01
    67  6.6000000000000E-01  1.2143024114760E+00 -2.8667275642568E-01
    68  6.7000000000000E-01  1.2336667920047E+00 -2.9563885807415E-01