Mn    ONCVPSP-3.3.0  r_core=   1.41250   1.20960   1.61055
25.0000     15.0000      180420    zatom,zion,pspd
8      11   2     4   600     0    pspcod,pspxc,lmax,lloc,mmax,r2well
5.99000000  4.00000000  0.00000000    rchrg fchrg qchrg
2     3     2     0    nproj
3     1           extension_switch
4     2     0    nprojso
0                         1.5606780255856E+00  9.2363377642983E+00
1  0.0000000000000E+00 -6.7372387009546E-10  3.5680158827489E-10
2  1.0000000000000E-02  1.1507287862545E-03  7.9817323249015E-02
3  2.0000000000000E-02  2.2888243703770E-03  1.5947664220866E-01
4  3.0000000000000E-02  3.4027689045797E-03  2.3881977270127E-01
5  4.0000000000000E-02  4.4832591890267E-03  3.1768817833728E-01
6  5.0000000000000E-02  5.5242740162316E-03  3.9592281322995E-01
7  6.0000000000000E-02  6.5240940207651E-03  4.7336398703980E-01
8  7.0000000000000E-02  7.4862589994057E-03  5.4985125937019E-01
9  8.0000000000000E-02  8.4204483405878E-03  6.2522337017815E-01
10  9.0000000000000E-02  9.3432710326637E-03  6.9931821242527E-01
11  1.0000000000000E-01  1.0278952700670E-02  7.7197285267489E-01
12  1.1000000000000E-01  1.1259908242080E-02  8.4302360474944E-01
13  1.2000000000000E-01  1.2327189883184E-02  9.1230616090157E-01
14  1.3000000000000E-01  1.3530801847703E-02  9.7965578422974E-01
15  1.4000000000000E-01  1.4929874305862E-02  1.0449075652920E+00
16  1.5000000000000E-01  1.6592690840735E-02  1.1078967450463E+00
17  1.6000000000000E-01  1.8596565315754E-02  1.1684591053819E+00
18  1.7000000000000E-01  2.1027565736337E-02  1.2264314276098E+00
19  1.8000000000000E-01  2.3980084453812E-02  1.2816520183651E+00
20  1.9000000000000E-01  2.7556255844073E-02  1.3339613014421E+00
21  2.0000000000000E-01  3.1865224389534E-02  1.3832024731497E+00
22  2.1000000000000E-01  3.7022267883090E-02  1.4292222178502E+00
23  2.2000000000000E-01  4.3147782238663E-02  1.4718714794293E+00
24  2.3000000000000E-01  5.0366136117497E-02  1.5110062835649E+00
25  2.4000000000000E-01  5.8804405243515E-02  1.5464886048088E+00
26  2.5000000000000E-01  6.8590997868558E-02  1.5781872716920E+00
27  2.6000000000000E-01  7.9854184340699E-02  1.6059789023160E+00
28  2.7000000000000E-01  9.2720545111010E-02  1.6297488622000E+00
29  2.8000000000000E-01  1.0731335276896E-01  1.6493922355430E+00
30  2.9000000000000E-01  1.2375090481025E-01  1.6648148005192E+00
31  3.0000000000000E-01  1.4214482479942E-01  1.6759339987761E+00
32  3.1000000000000E-01  1.6259835037981E-01  1.6826798889476E+00
33  3.2000000000000E-01  1.8520462719574E-01  1.6849960737339E+00
34  3.3000000000000E-01  2.1004502821487E-01  1.6828405899474E+00
35  3.4000000000000E-01  2.3718751816597E-01  1.6761867508758E+00
36  3.5000000000000E-01  2.6668508283222E-01  1.6650239303740E+00
37  3.6000000000000E-01  2.9857424275808E-01  1.6493582782791E+00
38  3.7000000000000E-01  3.3287367053721E-01  1.6292133570239E+00
39  3.8000000000000E-01  3.6958293024827E-01  1.6046306897355E+00
40  3.9000000000000E-01  4.0868135679881E-01  1.5756702106129E+00
41  4.0000000000000E-01  4.5012709192556E-01  1.5424106090083E+00
42  4.1000000000000E-01  4.9385629239200E-01  1.5049495593611E+00
43  4.2000000000000E-01  5.3978252452606E-01  1.4634038299690E+00
44  4.3000000000000E-01  5.8779635766491E-01  1.4179092645020E+00
45  4.4000000000000E-01  6.3776516733085E-01  1.3686206311816E+00
46  4.5000000000000E-01  6.8953315706791E-01  1.3157113356400E+00
47  4.6000000000000E-01  7.4292160583759E-01  1.2593729946347E+00
48  4.7000000000000E-01  7.9772934572439E-01  1.1998148690225E+00
49  4.8000000000000E-01  8.5373347245432E-01  1.1372631556649E+00
50  4.9000000000000E-01  9.1069028890658E-01  1.0719601392527E+00
51  5.0000000000000E-01  9.6833647941930E-01  1.0041632063694E+00
52  5.1000000000000E-01  1.0263905102808E+00  9.3414372546402E-01
53  5.2000000000000E-01  1.0845542493800E+00  8.6218579775205E-01
54  5.3000000000000E-01  1.1425147955926E+00  7.8858488539243E-01
55  5.4000000000000E-01  1.1999465061203E+00  7.1364632459716E-01
56  5.5000000000000E-01  1.2565132077163E+00  6.3768373258881E-01
57  5.6000000000000E-01  1.3118705755353E+00  5.6101731852764E-01
58  5.7000000000000E-01  1.3656686612702E+00  4.8397210966711E-01
59  5.8000000000000E-01  1.4175545503082E+00  4.0687610504759E-01
60  5.9000000000000E-01  1.4671751258691E+00  3.3005836999901E-01
61  6.0000000000000E-01  1.5141799165142E+00  2.5384708557121E-01
62  6.1000000000000E-01  1.5582240020382E+00  1.7856756774682E-01
63  6.2000000000000E-01  1.5989709516188E+00  1.0454027189470E-01
64  6.3000000000000E-01  1.6360957671915E+00  3.2078798391803E-02
65  6.4000000000000E-01  1.6692878043792E+00 -3.8512084333970E-02
66  6.5000000000000E-01  1.6982536429270E+00 -1.0693838291399E-01
67  6.6000000000000E-01  1.7227198785017E+00 -1.7291877185589E-01
68  6.7000000000000E-01  1.7424358079004E+00 -2.3618641976189E-01
69  6.8000000000000E-01  1.7571759801920E+00 -2.9649073293997E-01
70  6.9000000000000E-01  1.7667425870802E+00 -3.5359900086005E-01
71  7.0000000000000E-01  1.7709676668295E+00 -4.0729792852353E-01
72  7.1000000000000E-01  1.7697150974272E+00 -4.5739504158771E-01
73  7.2000000000000E-01  1.7628823562547E+00 -5.0371995100426E-01
74  7.3000000000000E-01  1.7504020254063E+00 -5.4612546499850E-01
75  7.4000000000000E-01  1.7322430238977E+00 -5.8448853741244E-01
76  7.5000000000000E-01  1.7084115503381E+00 -6.1871104275659E-01
77  7.6000000000000E-01  1.6789517221733E+00 -6.4872036974988E-01
78  7.7000000000000E-01  1.6439459003287E+00 -6.7446982666221E-01
79  7.8000000000000E-01  1.6035146909501E+00 -6.9593885339235E-01
80  7.9000000000000E-01  1.5578166189386E+00 -7.1313303690158E-01
81  8.0000000000000E-01  1.5070474710802E+00 -7.2608392837085E-01
82  8.1000000000000E-01  1.4514393097279E+00 -7.3484866222347E-01
83  8.2000000000000E-01  1.3912591611939E+00 -7.3950937895472E-01
84  8.3000000000000E-01  1.3268073862050E+00 -7.4017245550669E-01
85  8.4000000000000E-01  1.2584157429380E+00 -7.3696754870506E-01
86  8.5000000000000E-01  1.1864451562441E+00 -7.3004645901604E-01
87  8.6000000000000E-01  1.1112832096638E+00 -7.1958182356670E-01
88  8.7000000000000E-01  1.0333413796868E+00 -7.0576564898323E-01
89  8.8000000000000E-01  9.5305203440051E-01 -6.8880769612114E-01
90  8.9000000000000E-01  8.7086522115508E-01 -6.6893373017191E-01
91  9.0000000000000E-01  7.8724527013217E-01 -6.4638365091698E-01
92  9.1000000000000E-01  7.0266724270752E-01 -6.2140951904656E-01
93  9.2000000000000E-01  6.1761325521830E-01 -5.9427349545491E-01
94  9.3000000000000E-01  5.3256871016665E-01 -5.6524571125286E-01
95  9.4000000000000E-01  4.4801846799029E-01 -5.3460208689396E-01
96  9.5000000000000E-01  3.6444299328921E-01 -5.0262211927869E-01
97  9.6000000000000E-01  2.8231450981766E-01 -4.6958665598626E-01
98  9.7000000000000E-01  2.0209319860595E-01 -4.3577567586893E-01
99  9.8000000000000E-01  1.2422347327272E-01 -4.0146609513360E-01
100  9.9000000000000E-01  4.9130365926945E-02 -3.6692961772921E-01
101  1.0000000000000E+00 -2.2783943961543E-02 -3.3243064835695E-01
102  1.0100000000000E+00 -9.1143426703544E-02 -2.9822428573268E-01
103  1.0200000000000E+00 -1.5560129628244E-01 -2.6455441282596E-01
104  1.0300000000000E+00 -2.1584287365941E-01 -2.3165189980085E-01
105  1.0400000000000E+00 -2.7158819457417E-01 -1.9973293411664E-01
106  1.0500000000000E+00 -3.2259433950966E-01 -1.6899749088423E-01
107  1.0600000000000E+00 -3.6865746631821E-01 -1.3962795507759E-01
108  1.0700000000000E+00 -4.0961452914895E-01 -1.1178790553099E-01
109  1.0800000000000E+00 -4.4534467057681E-01 -8.5621068915697E-02
110  1.0900000000000E+00 -4.7577027707975E-01 -6.1250450156307E-02
111  1.1000000000000E+00 -5.0085769191683E-01 -3.8777643654953E-02
112  1.1100000000000E+00 -5.2061758274667E-01 -1.8282327926235E-02
113  1.1200000000000E+00 -5.3510496540557E-01  1.7805595049605E-04
114  1.1300000000000E+00 -5.4441888821236E-01  1.6568443244422E-02
115  1.1400000000000E+00 -5.4870178564349E-01  3.0876105455893E-02
116  1.1500000000000E+00 -5.4813851322765E-01  4.3110436403727E-02
117  1.1600000000000E+00 -5.4295507941107E-01  5.3302571877396E-02
118  1.1700000000000E+00 -5.3341709672916E-01  6.1504853275531E-02
119  1.1800000000000E+00 -5.1982794721986E-01  6.7790134675663E-02
120  1.1900000000000E+00 -5.0252680503489E-01  7.2250995790103E-02
121  1.2000000000000E+00 -4.8188594894662E-01  7.4998621241098E-02
122  1.2100000000000E+00 -4.5830967859707E-01  7.6162330551490E-02
123  1.2200000000000E+00 -4.3222863047087E-01  7.5887140549123E-02
124  1.2300000000000E+00 -4.0408918263993E-01  7.4329218804174E-02
125  1.2400000000000E+00 -3.7434245843571E-01  7.1650976543948E-02
126  1.2500000000000E+00 -3.4343792219615E-01  6.8018028314928E-02
127  1.2600000000000E+00 -3.1182091009196E-01  6.3597756424866E-02
128  1.2700000000000E+00 -2.7992836754805E-01  5.8557140382419E-02
129  1.2800000000000E+00 -2.4818522089703E-01  5.3060845059103E-02
130  1.2900000000000E+00 -2.1700071964912E-01  4.7269302547420E-02
131  1.3000000000000E+00 -1.8676494937904E-01  4.1336873895697E-02
132  1.3100000000000E+00 -1.5784550399448E-01  3.5410090138437E-02
133  1.3200000000000E+00 -1.3058435410046E-01  2.9625991551878E-02
134  1.3300000000000E+00 -1.0529494557712E-01  2.4110583213449E-02
135  1.3400000000000E+00 -8.2259551806377E-02  1.8977419753550E-02
136  1.3500000000000E+00 -6.1726903704446E-02  1.4326332296066E-02
137  1.3600000000000E+00 -4.3910123869826E-02  1.0242311687181E-02
138  1.3700000000000E+00 -2.8994569824481E-02  6.7968576148304E-03
139  1.3800000000000E+00 -1.7080274777999E-02  4.0336317432539E-03
140  1.3900000000000E+00 -8.2562310278706E-03  1.9857740490066E-03
141  1.4000000000000E+00 -2.8595525416660E-03  7.4314307086271E-04
142  1.4100000000000E+00 -4.9708254751253E-04  1.9939462959824E-04
143  1.4200000000000E+00  8.2890110236457E-05  2.7173430658894E-05
144  1.4300000000000E+00 -5.3073959619058E-06 -8.6189705617427E-08
145  1.4400000000000E+00 -3.9721809025274E-05  1.8636978121953E-06
146  1.4500000000000E+00  4.2748575878511E-06  2.9147410480437E-07
147  1.4600000000000E+00  4.4536117218472E-06  1.3260507893936E-07
148  1.4700000000000E+00  6.2617892160032E-07 -3.5442857065982E-07
149  1.4800000000000E+00  1.7343979828513E-07 -9.8170056003517E-08
150  1.4900000000000E+00  0.0000000000000E+00  0.0000000000000E+00
151  1.5000000000000E+00  0.0000000000000E+00  0.0000000000000E+00
152  1.5100000000000E+00  0.0000000000000E+00  0.0000000000000E+00
153  1.5200000000000E+00  0.0000000000000E+00  0.0000000000000E+00
154  1.5300000000000E+00  0.0000000000000E+00  0.0000000000000E+00
155  1.5400000000000E+00  0.0000000000000E+00  0.0000000000000E+00
156  1.5500000000000E+00  0.0000000000000E+00  0.0000000000000E+00
157  1.5600000000000E+00  0.0000000000000E+00  0.0000000000000E+00
158  1.5700000000000E+00  0.0000000000000E+00  0.0000000000000E+00
159  1.5800000000000E+00  0.0000000000000E+00  0.0000000000000E+00
160  1.5900000000000E+00  0.0000000000000E+00  0.0000000000000E+00
161  1.6000000000000E+00  0.0000000000000E+00  0.0000000000000E+00
162  1.6100000000000E+00  0.0000000000000E+00  0.0000000000000E+00
163  1.6200000000000E+00  0.0000000000000E+00  0.0000000000000E+00
164  1.6300000000000E+00  0.0000000000000E+00  0.0000000000000E+00
165  1.6400000000000E+00  0.0000000000000E+00  0.0000000000000E+00
166  1.6500000000000E+00  0.0000000000000E+00  0.0000000000000E+00
167  1.6600000000000E+00  0.0000000000000E+00  0.0000000000000E+00
168  1.6700000000000E+00  0.0000000000000E+00  0.0000000000000E+00
169  1.6800000000000E+00  0.0000000000000E+00  0.0000000000000E+00
170  1.6900000000000E+00  0.0000000000000E+00  0.0000000000000E+00
171  1.7000000000000E+00  0.0000000000000E+00  0.0000000000000E+00
172  1.7100000000000E+00  0.0000000000000E+00  0.0000000000000E+00
173  1.7200000000000E+00  0.0000000000000E+00  0.0000000000000E+00
174  1.7300000000000E+00  0.0000000000000E+00  0.0000000000000E+00
175  1.7400000000000E+00  0.0000000000000E+00  0.0000000000000E+00
176  1.7500000000000E+00  0.0000000000000E+00  0.0000000000000E+00
177  1.7600000000000E+00  0.0000000000000E+00  0.0000000000000E+00
178  1.7700000000000E+00  0.0000000000000E+00  0.0000000000000E+00
179  1.7800000000000E+00  0.0000000000000E+00  0.0000000000000E+00
180  1.7900000000000E+00  0.0000000000000E+00  0.0000000000000E+00
181  1.8000000000000E+00  0.0000000000000E+00  0.0000000000000E+00
182  1.8100000000000E+00  0.0000000000000E+00  0.0000000000000E+00
183  1.8200000000000E+00  0.0000000000000E+00  0.0000000000000E+00
184  1.8300000000000E+00  0.0000000000000E+00  0.0000000000000E+00
185  1.8400000000000E+00  0.0000000000000E+00  0.0000000000000E+00
186  1.8500000000000E+00  0.0000000000000E+00  0.0000000000000E+00
187  1.8600000000000E+00  0.0000000000000E+00  0.0000000000000E+00
188  1.8700000000000E+00  0.0000000000000E+00  0.0000000000000E+00
189  1.8800000000000E+00  0.0000000000000E+00  0.0000000000000E+00
190  1.8900000000000E+00  0.0000000000000E+00  0.0000000000000E+00
191  1.9000000000000E+00  0.0000000000000E+00  0.0000000000000E+00
192  1.9100000000000E+00  0.0000000000000E+00  0.0000000000000E+00
193  1.9200000000000E+00  0.0000000000000E+00  0.0000000000000E+00
194  1.9300000000000E+00  0.0000000000000E+00  0.0000000000000E+00
195  1.9400000000000E+00  0.0000000000000E+00  0.0000000000000E+00
196  1.9500000000000E+00  0.0000000000000E+00  0.0000000000000E+00
197  1.9600000000000E+00  0.0000000000000E+00  0.0000000000000E+00
198  1.9700000000000E+00  0.0000000000000E+00  0.0000000000000E+00
199  1.9800000000000E+00  0.0000000000000E+00  0.0000000000000E+00
200  1.9900000000000E+00  0.0000000000000E+00  0.0000000000000E+00
201  2.0000000000000E+00  0.0000000000000E+00  0.0000000000000E+00
202  2.0100000000000E+00  0.0000000000000E+00  0.0000000000000E+00
203  2.0200000000000E+00  0.0000000000000E+00  0.0000000000000E+00
204  2.0300000000000E+00  0.0000000000000E+00  0.0000000000000E+00
205  2.0400000000000E+00  0.0000000000000E+00  0.0000000000000E+00
206  2.0500000000000E+00  0.0000000000000E+00  0.0000000000000E+00
207  2.0600000000000E+00  0.0000000000000E+00  0.0000000000000E+00
208  2.0700000000000E+00  0.0000000000000E+00  0.0000000000000E+00
209  2.0800000000000E+00  0.0000000000000E+00  0.0000000000000E+00
210  2.0900000000000E+00  0.0000000000000E+00  0.0000000000000E+00
211  2.1000000000000E+00  0.0000000000000E+00  0.0000000000000E+00
212  2.1100000000000E+00  0.0000000000000E+00  0.0000000000000E+00
213  2.1200000000000E+00  0.0000000000000E+00  0.0000000000000E+00
214  2.1300000000000E+00  0.0000000000000E+00  0.0000000000000E+00
215  2.1400000000000E+00  0.0000000000000E+00  0.0000000000000E+00
216  2.1500000000000E+00  0.0000000000000E+00  0.0000000000000E+00
217  2.1600000000000E+00  0.0000000000000E+00  0.0000000000000E+00
218  2.1700000000000E+00  0.0000000000000E+00  0.0000000000000E+00
219  2.1800000000000E+00  0.0000000000000E+00  0.0000000000000E+00
220  2.1900000000000E+00  0.0000000000000E+00  0.0000000000000E+00
221  2.2000000000000E+00  0.0000000000000E+00  0.0000000000000E+00
222  2.2100000000000E+00  0.0000000000000E+00  0.0000000000000E+00
223  2.2200000000000E+00  0.0000000000000E+00  0.0000000000000E+00
224  2.2300000000000E+00  0.0000000000000E+00  0.0000000000000E+00
225  2.2400000000000E+00  0.0000000000000E+00  0.0000000000000E+00
226  2.2500000000000E+00  0.0000000000000E+00  0.0000000000000E+00
227  2.2600000000000E+00  0.0000000000000E+00  0.0000000000000E+00
228  2.2700000000000E+00  0.0000000000000E+00  0.0000000000000E+00
229  2.2800000000000E+00  0.0000000000000E+00  0.0000000000000E+00
230  2.2900000000000E+00  0.0000000000000E+00  0.0000000000000E+00
231  2.3000000000000E+00  0.0000000000000E+00  0.0000000000000E+00
232  2.3100000000000E+00  0.0000000000000E+00  0.0000000000000E+00
233  2.3200000000000E+00  0.0000000000000E+00  0.0000000000000E+00
234  2.3300000000000E+00  0.0000000000000E+00  0.0000000000000E+00
235  2.3400000000000E+00  0.0000000000000E+00  0.0000000000000E+00
236  2.3500000000000E+00  0.0000000000000E+00  0.0000000000000E+00
237  2.3600000000000E+00  0.0000000000000E+00  0.0000000000000E+00
238  2.3700000000000E+00  0.0000000000000E+00  0.0000000000000E+00
239  2.3800000000000E+00  0.0000000000000E+00  0.0000000000000E+00
240  2.3900000000000E+00  0.0000000000000E+00  0.0000000000000E+00
241  2.4000000000000E+00  0.0000000000000E+00  0.0000000000000E+00
242  2.4100000000000E+00  0.0000000000000E+00  0.0000000000000E+00
243  2.4200000000000E+00  0.0000000000000E+00  0.0000000000000E+00
244  2.4300000000000E+00  0.0000000000000E+00  0.0000000000000E+00
245  2.4400000000000E+00  0.0000000000000E+00  0.0000000000000E+00
246  2.4500000000000E+00  0.0000000000000E+00  0.0000000000000E+00
247  2.4600000000000E+00  0.0000000000000E+00  0.0000000000000E+00
248  2.4700000000000E+00  0.0000000000000E+00  0.0000000000000E+00
249  2.4800000000000E+00  0.0000000000000E+00  0.0000000000000E+00
250  2.4900000000000E+00  0.0000000000000E+00  0.0000000000000E+00
251  2.5000000000000E+00  0.0000000000000E+00  0.0000000000000E+00
252  2.5100000000000E+00  0.0000000000000E+00  0.0000000000000E+00
253  2.5200000000000E+00  0.0000000000000E+00  0.0000000000000E+00
254  2.5300000000000E+00  0.0000000000000E+00  0.0000000000000E+00
255  2.5400000000000E+00  0.0000000000000E+00  0.0000000000000E+00
256  2.5500000000000E+00  0.0000000000000E+00  0.0000000000000E+00
257  2.5600000000000E+00  0.0000000000000E+00  0.0000000000000E+00
258  2.5700000000000E+00  0.0000000000000E+00  0.0000000000000E+00
259  2.5800000000000E+00  0.0000000000000E+00  0.0000000000000E+00
260  2.5900000000000E+00  0.0000000000000E+00  0.0000000000000E+00
261  2.6000000000000E+00  0.0000000000000E+00  0.0000000000000E+00
262  2.6100000000000E+00  0.0000000000000E+00  0.0000000000000E+00
263  2.6200000000000E+00  0.0000000000000E+00  0.0000000000000E+00
264  2.6300000000000E+00  0.0000000000000E+00  0.0000000000000E+00
265  2.6400000000000E+00  0.0000000000000E+00  0.0000000000000E+00
266  2.6500000000000E+00  0.0000000000000E+00  0.0000000000000E+00
267  2.6600000000000E+00  0.0000000000000E+00  0.0000000000000E+00
268  2.6700000000000E+00  0.0000000000000E+00  0.0000000000000E+00
269  2.6800000000000E+00  0.0000000000000E+00  0.0000000000000E+00
270  2.6900000000000E+00  0.0000000000000E+00  0.0000000000000E+00
271  2.7000000000000E+00  0.0000000000000E+00  0.0000000000000E+00
272  2.7100000000000E+00  0.0000000000000E+00  0.0000000000000E+00
273  2.7200000000000E+00  0.0000000000000E+00  0.0000000000000E+00
274  2.7300000000000E+00  0.0000000000000E+00  0.0000000000000E+00
275  2.7400000000000E+00  0.0000000000000E+00  0.0000000000000E+00
276  2.7500000000000E+00  0.0000000000000E+00  0.0000000000000E+00
277  2.7600000000000E+00  0.0000000000000E+00  0.0000000000000E+00
278  2.7700000000000E+00  0.0000000000000E+00  0.0000000000000E+00
279  2.7800000000000E+00  0.0000000000000E+00  0.0000000000000E+00
280  2.7900000000000E+00  0.0000000000000E+00  0.0000000000000E+00
281  2.8000000000000E+00  0.0000000000000E+00  0.0000000000000E+00
282  2.8100000000000E+00  0.0000000000000E+00  0.0000000000000E+00
283  2.8200000000000E+00  0.0000000000000E+00  0.0000000000000E+00
284  2.8300000000000E+00  0.0000000000000E+00  0.0000000000000E+00
285  2.8400000000000E+00  0.0000000000000E+00  0.0000000000000E+00
286  2.8500000000000E+00  0.0000000000000E+00  0.0000000000000E+00
287  2.8600000000000E+00  0.0000000000000E+00  0.0000000000000E+00
288  2.8700000000000E+00  0.0000000000000E+00  0.0000000000000E+00
289  2.8800000000000E+00  0.0000000000000E+00  0.0000000000000E+00
290  2.8900000000000E+00  0.0000000000000E+00  0.0000000000000E+00
291  2.9000000000000E+00  0.0000000000000E+00  0.0000000000000E+00
292  2.9100000000000E+00  0.0000000000000E+00  0.0000000000000E+00
293  2.9200000000000E+00  0.0000000000000E+00  0.0000000000000E+00
294  2.9300000000000E+00  0.0000000000000E+00  0.0000000000000E+00
295  2.9400000000000E+00  0.0000000000000E+00  0.0000000000000E+00
296  2.9500000000000E+00  0.0000000000000E+00  0.0000000000000E+00
297  2.9600000000000E+00  0.0000000000000E+00  0.0000000000000E+00
298  2.9700000000000E+00  0.0000000000000E+00  0.0000000000000E+00
299  2.9800000000000E+00  0.0000000000000E+00  0.0000000000000E+00
300  2.9900000000000E+00  0.0000000000000E+00  0.0000000000000E+00
301  3.0000000000000E+00  0.0000000000000E+00  0.0000000000000E+00
302  3.0100000000000E+00  0.0000000000000E+00  0.0000000000000E+00
303  3.0200000000000E+00  0.0000000000000E+00  0.0000000000000E+00
304  3.0300000000000E+00  0.0000000000000E+00  0.0000000000000E+00
305  3.0400000000000E+00  0.0000000000000E+00  0.0000000000000E+00
306  3.0500000000000E+00  0.0000000000000E+00  0.0000000000000E+00
307  3.0600000000000E+00  0.0000000000000E+00  0.0000000000000E+00
308  3.0700000000000E+00  0.0000000000000E+00  0.0000000000000E+00
309  3.0800000000000E+00  0.0000000000000E+00  0.0000000000000E+00
310  3.0900000000000E+00  0.0000000000000E+00  0.0000000000000E+00
311  3.1000000000000E+00  0.0000000000000E+00  0.0000000000000E+00
312  3.1100000000000E+00  0.0000000000000E+00  0.0000000000000E+00
313  3.1200000000000E+00  0.0000000000000E+00  0.0000000000000E+00
314  3.1300000000000E+00  0.0000000000000E+00  0.0000000000000E+00
315  3.1400000000000E+00  0.0000000000000E+00  0.0000000000000E+00
316  3.1500000000000E+00  0.0000000000000E+00  0.0000000000000E+00
317  3.1600000000000E+00  0.0000000000000E+00  0.0000000000000E+00
318  3.1700000000000E+00  0.0000000000000E+00  0.0000000000000E+00
319  3.1800000000000E+00  0.0000000000000E+00  0.0000000000000E+00
320  3.1900000000000E+00  0.0000000000000E+00  0.0000000000000E+00
321  3.2000000000000E+00  0.0000000000000E+00  0.0000000000000E+00
322  3.2100000000000E+00  0.0000000000000E+00  0.0000000000000E+00
323  3.2200000000000E+00  0.0000000000000E+00  0.0000000000000E+00
324  3.2300000000000E+00  0.0000000000000E+00  0.0000000000000E+00
325  3.2400000000000E+00  0.0000000000000E+00  0.0000000000000E+00
326  3.2500000000000E+00  0.0000000000000E+00  0.0000000000000E+00
327  3.2600000000000E+00  0.0000000000000E+00  0.0000000000000E+00
328  3.2700000000000E+00  0.0000000000000E+00  0.0000000000000E+00
329  3.2800000000000E+00  0.0000000000000E+00  0.0000000000000E+00
330  3.2900000000000E+00  0.0000000000000E+00  0.0000000000000E+00
331  3.3000000000000E+00  0.0000000000000E+00  0.0000000000000E+00
332  3.3100000000000E+00  0.0000000000000E+00  0.0000000000000E+00
333  3.3200000000000E+00  0.0000000000000E+00  0.0000000000000E+00
334  3.3300000000000E+00  0.0000000000000E+00  0.0000000000000E+00
335  3.3400000000000E+00  0.0000000000000E+00  0.0000000000000E+00
336  3.3500000000000E+00  0.0000000000000E+00  0.0000000000000E+00
337  3.3600000000000E+00  0.0000000000000E+00  0.0000000000000E+00
338  3.3700000000000E+00  0.0000000000000E+00  0.0000000000000E+00
339  3.3800000000000E+00  0.0000000000000E+00  0.0000000000000E+00
340  3.3900000000000E+00  0.0000000000000E+00  0.0000000000000E+00
341  3.4000000000000E+00  0.0000000000000E+00  0.0000000000000E+00
342  3.4100000000000E+00  0.0000000000000E+00  0.0000000000000E+00
343  3.4200000000000E+00  0.0000000000000E+00  0.0000000000000E+00
344  3.4300000000000E+00  0.0000000000000E+00  0.0000000000000E+00
345  3.4400000000000E+00  0.0000000000000E+00  0.0000000000000E+00
346  3.4500000000000E+00  0.0000000000000E+00  0.0000000000000E+00
347  3.4600000000000E+00  0.0000000000000E+00  0.0000000000000E+00
348  3.4700000000000E+00  0.0000000000000E+00  0.0000000000000E+00
349  3.4800000000000E+00  0.0000000000000E+00  0.0000000000000E+00
350  3.4900000000000E+00  0.0000000000000E+00  0.0000000000000E+00
351  3.5000000000000E+00  0.0000000000000E+00  0.0000000000000E+00
352  3.5100000000000E+00  0.0000000000000E+00  0.0000000000000E+00
353  3.5200000000000E+00  0.0000000000000E+00  0.0000000000000E+00
354  3.5300000000000E+00  0.0000000000000E+00  0.0000000000000E+00
355  3.5400000000000E+00  0.0000000000000E+00  0.0000000000000E+00
356  3.5500000000000E+00  0.0000000000000E+00  0.0000000000000E+00
357  3.5600000000000E+00  0.0000000000000E+00  0.0000000000000E+00
358  3.5700000000000E+00  0.0000000000000E+00  0.0000000000000E+00
359  3.5800000000000E+00  0.0000000000000E+00  0.0000000000000E+00
360  3.5900000000000E+00  0.0000000000000E+00  0.0000000000000E+00
361  3.6000000000000E+00  0.0000000000000E+00  0.0000000000000E+00
362  3.6100000000000E+00  0.0000000000000E+00  0.0000000000000E+00
363  3.6200000000000E+00  0.0000000000000E+00  0.0000000000000E+00
364  3.6300000000000E+00  0.0000000000000E+00  0.0000000000000E+00
365  3.6400000000000E+00  0.0000000000000E+00  0.0000000000000E+00
366  3.6500000000000E+00  0.0000000000000E+00  0.0000000000000E+00
367  3.6600000000000E+00  0.0000000000000E+00  0.0000000000000E+00
368  3.6700000000000E+00  0.0000000000000E+00  0.0000000000000E+00
369  3.6800000000000E+00  0.0000000000000E+00  0.0000000000000E+00
370  3.6900000000000E+00  0.0000000000000E+00  0.0000000000000E+00
371  3.7000000000000E+00  0.0000000000000E+00  0.0000000000000E+00
372  3.7100000000000E+00  0.0000000000000E+00  0.0000000000000E+00
373  3.7200000000000E+00  0.0000000000000E+00  0.0000000000000E+00
374  3.7300000000000E+00  0.0000000000000E+00  0.0000000000000E+00
375  3.7400000000000E+00  0.0000000000000E+00  0.0000000000000E+00
376  3.7500000000000E+00  0.0000000000000E+00  0.0000000000000E+00
377  3.7600000000000E+00  0.0000000000000E+00  0.0000000000000E+00
378  3.7700000000000E+00  0.0000000000000E+00  0.0000000000000E+00
379  3.7800000000000E+00  0.0000000000000E+00  0.0000000000000E+00
380  3.7900000000000E+00  0.0000000000000E+00  0.0000000000000E+00
381  3.8000000000000E+00  0.0000000000000E+00  0.0000000000000E+00
382  3.8100000000000E+00  0.0000000000000E+00  0.0000000000000E+00
383  3.8200000000000E+00  0.0000000000000E+00  0.0000000000000E+00
384  3.8300000000000E+00  0.0000000000000E+00  0.0000000000000E+00
385  3.8400000000000E+00  0.0000000000000E+00  0.0000000000000E+00
386  3.8500000000000E+00  0.0000000000000E+00  0.0000000000000E+00
387  3.8600000000000E+00  0.0000000000000E+00  0.0000000000000E+00
388  3.8700000000000E+00  0.0000000000000E+00  0.0000000000000E+00
389  3.8800000000000E+00  0.0000000000000E+00  0.0000000000000E+00
390  3.8900000000000E+00  0.0000000000000E+00  0.0000000000000E+00
391  3.9000000000000E+00  0.0000000000000E+00  0.0000000000000E+00
392  3.9100000000000E+00  0.0000000000000E+00  0.0000000000000E+00
393  3.9200000000000E+00  0.0000000000000E+00  0.0000000000000E+00
394  3.9300000000000E+00  0.0000000000000E+00  0.0000000000000E+00
395  3.9400000000000E+00  0.0000000000000E+00  0.0000000000000E+00
396  3.9500000000000E+00  0.0000000000000E+00  0.0000000000000E+00
397  3.9600000000000E+00  0.0000000000000E+00  0.0000000000000E+00
398  3.9700000000000E+00  0.0000000000000E+00  0.0000000000000E+00
399  3.9800000000000E+00  0.0000000000000E+00  0.0000000000000E+00
400  3.9900000000000E+00  0.0000000000000E+00  0.0000000000000E+00
401  4.0000000000000E+00  0.0000000000000E+00  0.0000000000000E+00
402  4.0100000000000E+00  0.0000000000000E+00  0.0000000000000E+00
403  4.0200000000000E+00  0.0000000000000E+00  0.0000000000000E+00
404  4.0300000000000E+00  0.0000000000000E+00  0.0000000000000E+00
405  4.0400000000000E+00  0.0000000000000E+00  0.0000000000000E+00
406  4.0500000000000E+00  0.0000000000000E+00  0.0000000000000E+00
407  4.0600000000000E+00  0.0000000000000E+00  0.0000000000000E+00
408  4.0700000000000E+00  0.0000000000000E+00  0.0000000000000E+00
409  4.0800000000000E+00  0.0000000000000E+00  0.0000000000000E+00
410  4.0900000000000E+00  0.0000000000000E+00  0.0000000000000E+00
411  4.1000000000000E+00  0.0000000000000E+00  0.0000000000000E+00
412  4.1100000000000E+00  0.0000000000000E+00  0.0000000000000E+00
413  4.1200000000000E+00  0.0000000000000E+00  0.0000000000000E+00
414  4.1300000000000E+00  0.0000000000000E+00  0.0000000000000E+00
415  4.1400000000000E+00  0.0000000000000E+00  0.0000000000000E+00
416  4.1500000000000E+00  0.0000000000000E+00  0.0000000000000E+00
417  4.1600000000000E+00  0.0000000000000E+00  0.0000000000000E+00
418  4.1700000000000E+00  0.0000000000000E+00  0.0000000000000E+00
419  4.1800000000000E+00  0.0000000000000E+00  0.0000000000000E+00
420  4.1900000000000E+00  0.0000000000000E+00  0.0000000000000E+00
421  4.2000000000000E+00  0.0000000000000E+00  0.0000000000000E+00
422  4.2100000000000E+00  0.0000000000000E+00  0.0000000000000E+00
423  4.2200000000000E+00  0.0000000000000E+00  0.0000000000000E+00
424  4.2300000000000E+00  0.0000000000000E+00  0.0000000000000E+00
425  4.2400000000000E+00  0.0000000000000E+00  0.0000000000000E+00
426  4.2500000000000E+00  0.0000000000000E+00  0.0000000000000E+00
427  4.2600000000000E+00  0.0000000000000E+00  0.0000000000000E+00
428  4.2700000000000E+00  0.0000000000000E+00  0.0000000000000E+00
429  4.2800000000000E+00  0.0000000000000E+00  0.0000000000000E+00
430  4.2900000000000E+00  0.0000000000000E+00  0.0000000000000E+00
431  4.3000000000000E+00  0.0000000000000E+00  0.0000000000000E+00
432  4.3100000000000E+00  0.0000000000000E+00  0.0000000000000E+00
433  4.3200000000000E+00  0.0000000000000E+00  0.0000000000000E+00
434  4.3300000000000E+00  0.0000000000000E+00  0.0000000000000E+00
435  4.3400000000000E+00  0.0000000000000E+00  0.0000000000000E+00
436  4.3500000000000E+00  0.0000000000000E+00  0.0000000000000E+00
437  4.3600000000000E+00  0.0000000000000E+00  0.0000000000000E+00
438  4.3700000000000E+00  0.0000000000000E+00  0.0000000000000E+00
439  4.3800000000000E+00  0.0000000000000E+00  0.0000000000000E+00
440  4.3900000000000E+00  0.0000000000000E+00  0.0000000000000E+00
441  4.4000000000000E+00  0.0000000000000E+00  0.0000000000000E+00
442  4.4100000000000E+00  0.0000000000000E+00  0.0000000000000E+00
443  4.4200000000000E+00  0.0000000000000E+00  0.0000000000000E+00