:MDSTEP: 10
:R(Bohr):
  1.2021393836E+01   6.0306748310E+00   1.0942060394E-01
  2.5376539275E-02   2.0677487299E-01   2.9941601205E+00
  1.2146291089E+01   2.8971356605E+00   1.0410108261E-01
  1.2101390366E+01   2.9431363989E+00   3.1492949780E+00
  3.0293716459E+00   5.9109828739E+00   1.1066118964E-01
  2.9199026723E+00   9.3904373916E-04   3.2047789037E+00
  3.0286725512E+00   2.8808052486E+00   9.2683703714E-02
  3.1945299710E+00   3.0443352470E+00   2.8709906129E+00
  6.3551101098E+00   6.0754946630E+00   6.0129945905E+00
  6.0483563490E+00   1.2884647264E-01   2.8358334448E+00
  6.0256880436E+00   3.3316630195E+00   4.5630338490E-02
  6.1112561484E+00   3.1720858161E+00   3.2290547120E+00
  9.0721699089E+00   2.9155165424E-04   5.9043519081E+00
  8.8662061853E+00   6.0721458018E+00   3.0386758713E+00
  9.2545338016E+00   2.9039745121E+00   5.9939358617E+00
  9.1597604529E+00   3.0051627291E+00   2.8323247278E+00
:V(Bohr/atu):
 -5.8015832932E-04  -4.5221624225E-04   3.2511938050E-04
  1.9808968540E-05   7.2327212053E-04  -1.5565610338E-04
  1.3493478393E-04  -5.2730284741E-04   5.0042993460E-04
 -1.3430854928E-04  -2.2667944396E-05   6.4969045196E-04
  8.8128221977E-05  -8.2830987879E-04   5.8464347641E-04
 -5.4354383639E-04   7.0157084640E-05   9.2287756921E-04
 -1.1994820722E-04  -8.5049890469E-04   6.4218467295E-05
  7.2333752560E-04   1.1919889895E-04  -6.8617174272E-04
  1.1368642322E-03   2.9367063074E-04  -5.0343447885E-04
 -4.7721981859E-04   6.6891175966E-04  -1.0228106699E-03
 -3.1456011663E-04   1.1099330855E-03   4.5948671998E-04
  3.0738869686E-04   5.1373780024E-04   9.8698796197E-04
  3.1426995572E-05  -1.4782510535E-04  -6.3345250839E-04
 -1.0299100480E-03  -8.9280944159E-05  -3.1356867716E-05
  5.3677199454E-04  -5.1960233502E-04  -4.9984609244E-04
  2.2098748626E-04  -6.1177178182E-05  -9.6072549853E-04
:TEL(K): 800
:TIO(K): 800.000000000001
