:MDSTEP: 10
:R(Bohr):
  1.2021393833E+01   6.0306748331E+00   1.0942060420E-01
  2.5376536689E-02   2.0677487408E-01   2.9941601198E+00
  1.2146291085E+01   2.8971356598E+00   1.0410108196E-01
  1.2101390363E+01   2.9431363966E+00   3.1492949771E+00
  3.0293716457E+00   5.9109828750E+00   1.1066118863E-01
  2.9199026745E+00   9.3904352287E-04   3.2047789025E+00
  3.0286725515E+00   2.8808052501E+00   9.2683705065E-02
  3.1945299719E+00   3.0443352471E+00   2.8709906125E+00
  6.3551101123E+00   6.0754946603E+00   6.0129945915E+00
  6.0483563532E+00   1.2884647072E-01   2.8358334458E+00
  6.0256880460E+00   3.3316630202E+00   4.5630336832E-02
  6.1112561496E+00   3.1720858163E+00   3.2290547116E+00
  9.0721699091E+00   2.9155276884E-04   5.9043519078E+00
  8.8662061846E+00   6.0721458023E+00   3.0386758729E+00
  9.2545338024E+00   2.9039745119E+00   5.9939358626E+00
  9.1597604527E+00   3.0051627288E+00   2.8323247289E+00
:V(Bohr/atu):
 -5.8015835607E-04  -4.5221622015E-04   3.2511938893E-04
  1.9808952354E-05   7.2327213922E-04  -1.5565611076E-04
  1.3493474567E-04  -5.2730285935E-04   5.0042993444E-04
 -1.3430858068E-04  -2.2667973732E-05   6.4969043958E-04
  8.8128220890E-05  -8.2830987260E-04   5.8464347142E-04
 -5.4354382821E-04   7.0157087672E-05   9.2287755656E-04
 -1.1994819944E-04  -8.5049889261E-04   6.4218489133E-05
  7.2333753455E-04   1.1919889527E-04  -6.8617175264E-04
  1.1368642621E-03   2.9367060495E-04  -5.0343446562E-04
 -4.7721977265E-04   6.6891174747E-04  -1.0228106660E-03
 -3.1456009836E-04   1.1099330997E-03   4.5948670747E-04
  3.0738870828E-04   5.1373780348E-04   9.8698795583E-04
  3.1426983281E-05  -1.4782509363E-04  -6.3345251462E-04
 -1.0299100587E-03  -8.9280936652E-05  -3.1356856587E-05
  5.3677200154E-04  -5.1960234175E-04  -4.9984608076E-04
  2.2098748546E-04  -6.1177187252E-05  -9.6072549636E-04
:TEL(K): 800
:TIO(K): 799.999999999999
