:MDSTEP: 10
:R(Bohr):
  3.9374927588E-01   1.2476523773E-01   7.0790429635E-02
  3.7616382609E+00   1.5004738803E+01   3.8374093013E+00
  7.6118621495E+00   1.4956073277E+01   2.4721322131E-01
  1.1208565040E+01   1.5008157923E+01   3.6817979152E+00
  4.6077600421E-02   7.5858492786E+00   1.5010127383E+01
  3.7238362469E+00   7.5803872471E+00   3.7428282484E+00
  7.3774684089E+00   7.4236964907E+00   4.4117619776E-02
  1.1267390446E+01   7.5405855483E+00   3.8167774213E+00
  4.6782948586E-01   1.4952619684E+01   7.5312273248E+00
  3.6821366574E+00   9.1104565685E-03   1.1161643954E+01
  7.5107255234E+00   1.6063856836E-02   7.7559808525E+00
  1.1277956778E+01   1.4953184268E+01   1.1334057265E+01
  8.9198953935E-02   7.5129733816E+00   7.5694740988E+00
  3.8796831702E+00   7.5765228891E+00   1.1252168447E+01
  7.3927717188E+00   7.6129361168E+00   7.4605147989E+00
  1.1270077786E+01   7.3823744822E+00   1.1251942378E+01
  2.4729908107E-02   3.7851173348E+00   3.7853151447E+00
  3.7200926096E+00   3.7621137641E+00   1.5007746261E+01
  7.5535974313E+00   3.6904515734E+00   3.6357877661E+00
  1.1229141971E+01   3.7388367709E+00   1.4967551992E+01
  2.9179642368E-01   1.1234699056E+01   3.7820074147E+00
  3.6882406398E+00   1.1278303349E+01   4.8209080716E-01
  7.5499121704E+00   1.1318917945E+01   3.7748077907E+00
  1.1137021330E+01   1.1254455553E+01   1.2269356081E-02
  4.0763608399E-02   3.7103354037E+00   1.1184909985E+01
  3.7555997115E+00   3.7093651774E+00   7.5845517070E+00
  7.5727272638E+00   3.7297733927E+00   1.1273947834E+01
  1.1216914577E+01   3.7947935400E+00   7.5495551122E+00
  2.8830468088E-01   1.1262944755E+01   1.1274444735E+01
  3.7258803463E+00   1.1178361899E+01   7.8970130125E+00
  7.5450072416E+00   1.1334254045E+01   1.1334699333E+01
  1.1305129392E+01   1.1266791378E+01   7.5413925112E+00
:V(Bohr/atu):
 -4.2894866403E-05   5.5573648796E-04   3.1591519471E-04
  4.5139958029E-05  -5.0034654001E-05   3.6909615617E-04
  4.5822992379E-04  -2.6777480149E-04  -2.4366468015E-04
 -2.3549035860E-04  -3.6181651139E-05  -3.1568372344E-04
  2.0823663229E-04   3.4001421047E-04  -3.0476923842E-05
 -1.3793822566E-04   3.1970325383E-04  -5.1119002449E-05
 -5.7923945065E-04  -3.7759015820E-04   2.0279743325E-04
  1.9160736070E-05   1.3901827787E-04   2.7647005881E-04
  2.8013912493E-04  -2.8349563109E-04   9.9596477833E-05
 -3.1083638790E-04   4.4234389842E-05  -4.4466060541E-04
  1.3208847959E-05   7.2178002146E-05  -2.3930192961E-04
  7.2508457687E-05  -2.7926127507E-04   3.2372207046E-04
  4.0226661317E-04   2.1200045246E-05   2.7311392577E-04
  5.5372067325E-04   2.9869691277E-04  -5.0698751511E-05
 -5.1523919383E-04   4.6170292278E-04  -2.0772819241E-04
  2.9285600573E-05  -5.6825462594E-04  -4.6374242155E-05
  1.0923346851E-04   1.3456685172E-04   1.4133173050E-04
 -1.5390860723E-04   3.6265764592E-05  -2.0848867669E-05
  2.1243345482E-04  -2.8390496937E-04  -5.4666852354E-04
 -1.6323313010E-04  -6.2456222907E-05  -2.2608911763E-04
 -9.8907363640E-06  -1.2639486385E-04   1.0518103954E-04
 -3.0738817079E-04   6.5791989391E-05  -5.4911354773E-05
  2.0591011590E-04   2.5005499800E-04   5.2983554810E-05
 -5.9504527389E-04  -2.9706255130E-05   8.5021145815E-05
  1.8295534141E-04  -1.9315700444E-04  -3.5371060624E-04
 -2.1936329844E-06  -1.9974029352E-04   3.6258100526E-04
  3.0300949851E-04  -1.0632888078E-04   4.1313300457E-05
 -2.0731331844E-04   1.8118469424E-04   1.8077648467E-04
 -3.2229342914E-05   2.0294177757E-06   2.2352413674E-05
 -1.5451175278E-04  -3.8090820401E-04  -4.8138758637E-04
  1.9283013721E-04   3.1841832848E-04   2.8916245258E-04
  1.6930942170E-04   1.9711814650E-05   1.8098579643E-04
:NPT_NP_QMASS: 500
:NPT_NP_BMASS: 0.1
:NPT_NP_Sv: 4.01654710801583e-05
:NPT_NP_Pm: 0.0898969153409675 0.0898969153409675 0.0898969153409675
:NPT_NP_S: 1.0051578756126
:NPT_NP_range_x_velo: 0.000133418013110834
:NPT_NP_range_y_velo: 0.000133418013110834
:NPT_NP_range_z_velo: 0.000133418013110834
:CELL: 15.0168278373431 15.0168278373431 15.0168278373431
:TARGET_PRESSURE: 0 GPa
:NPT_NP_ini_Hamiltonian: -96.087060295127
:TEL(K): 1120
:TIO(K): 1120.14820204727
