Li    ONCVPSP-4.0.1  r_core=   1.13028   1.13028
      3.0000      3.0000      200301    zatom,zion,pspd
     8       2   1     4  1200     0    pspcod,pspxc,lmax,lloc,mmax,r2well
  5.99500000  0.00000000  0.00000000    rchrg fchrg qchrg
     2     2     0     0     0    nproj
     1     1           extension_switch
   0                        -5.8132396294530E+00 -1.4684406283631E+00
     1  0.0000000000000E+00 -4.6055825819735E-11  1.1885209483253E-10
     2  5.0000000000000E-03  7.3801228110420E-02 -2.9123337596732E-02
     3  1.0000000000000E-02  1.4748973216662E-01 -5.8120480829130E-02
     4  1.5000000000000E-02  2.2095309669412E-01 -8.6865805480676E-02
     5  2.0000000000000E-02  2.9407952177705E-01 -1.1523482382644E-01
     6  2.5000000000000E-02  3.6675812684694E-01 -1.4310474339908E-01
     7  3.0000000000000E-02  4.3887924971571E-01 -1.7035501446376E-01
     8  3.5000000000000E-02  5.1033473932211E-01 -1.9686786257873E-01
     9  4.0000000000000E-02  5.8101824070652E-01 -2.2252880273687E-01
    10  4.5000000000000E-02  6.5082547078649E-01 -2.4722713173068E-01
    11  5.0000000000000E-02  7.1965448357207E-01 -2.7085639555579E-01
    12  5.5000000000000E-02  7.8740592353738E-01 -2.9331482886734E-01
    13  6.0000000000000E-02  8.5398326595093E-01 -3.1450576372497E-01
    14  6.5000000000000E-02  9.1929304306202E-01 -3.3433800510630E-01
    15  7.0000000000000E-02  9.8324505514298E-01 -3.5272617093222E-01
    16  7.5000000000000E-02  1.0457525654964E+00 -3.6959099462807E-01
    17  8.0000000000000E-02  1.1067324786520E+00 -3.8485958854114E-01
    18  8.5000000000000E-02  1.1661055010979E+00 -3.9846566684385E-01
    19  9.0000000000000E-02  1.2237962840168E+00 -4.1034972687067E-01
    20  9.5000000000000E-02  1.2797335476236E+00 -4.2045918816386E-01
    21  1.0000000000000E-01  1.3338501868325E+00 -4.2874848883403E-01
    22  1.0500000000000E-01  1.3860833581118E+00 -4.3517913917544E-01
    23  1.1000000000000E-01  1.4363745475161E+00 -4.3971973280810E-01
    24  1.1500000000000E-01  1.4846696200142E+00 -4.4234591594849E-01
    25  1.2000000000000E-01  1.5309188503610E+00 -4.4304031573357E-01
    26  1.2500000000000E-01  1.5750769358845E+00 -4.4179242883677E-01
    27  1.3000000000000E-01  1.6171029916809E+00 -4.3859847191752E-01
    28  1.3500000000000E-01  1.6569605288253E+00 -4.3346119573458E-01
    29  1.4000000000000E-01  1.6946174163174E+00 -4.2638966502534E-01
    30  1.4500000000000E-01  1.7300458275805E+00 -4.1739900650737E-01
    31  1.5000000000000E-01  1.7632221724321E+00 -4.0651012759059E-01
    32  1.5500000000000E-01  1.7941270155268E+00 -3.9374940859957E-01
    33  1.6000000000000E-01  1.8227449823533E+00 -3.7914837148979E-01
    34  1.6500000000000E-01  1.8490646539320E+00 -3.6274332820270E-01
    35  1.7000000000000E-01  1.8730784514217E+00 -3.4457501193585E-01
    36  1.7500000000000E-01  1.8947825118870E+00 -3.2468819470848E-01
    37  1.8000000000000E-01  1.9141765565168E+00 -3.0313129467822E-01
    38  1.8500000000000E-01  1.9312637526087E+00 -2.7995597670854E-01
    39  1.9000000000000E-01  1.9460505706470E+00 -2.5521674970184E-01
    40  1.9500000000000E-01  1.9585466378062E+00 -2.2897056419705E-01
    41  2.0000000000000E-01  1.9687645891992E+00 -2.0127641368499E-01
    42  2.0500000000000E-01  1.9767199181731E+00 -1.7219494301846E-01
    43  2.1000000000000E-01  1.9824308269210E+00 -1.4178806719062E-01
    44  2.1500000000000E-01  1.9859180786352E+00 -1.1011860362061E-01
    45  2.2000000000000E-01  1.9872048523793E+00 -7.7249920926809E-02
    46  2.2500000000000E-01  1.9863166017870E+00 -4.3245606981941E-02
    47  2.3000000000000E-01  1.9832809186304E+00 -8.1691588345728E-03
    48  2.3500000000000E-01  1.9781274022148E+00  2.7916303150134E-02
    49  2.4000000000000E-01  1.9708875354730E+00  6.4948294829567E-02
    50  2.4500000000000E-01  1.9615945685326E+00  1.0286519967247E-01
    51  2.5000000000000E-01  1.9502834104314E+00  1.4160647045226E-01
    52  2.5500000000000E-01  1.9369905295473E+00  1.8111279999970E-01
    53  2.6000000000000E-01  1.9217538631967E+00  2.2132626007877E-01
    54  2.6500000000000E-01  1.9046127367445E+00  2.6219040776731E-01
    55  2.7000000000000E-01  1.8856077924452E+00  3.0365035904771E-01
    56  2.7500000000000E-01  1.8647809281237E+00  3.4565282963669E-01
    57  2.8000000000000E-01  1.8421752456784E+00  3.8814614340929E-01
    58  2.8500000000000E-01  1.8178350092767E+00  4.3108020909259E-01
    59  2.9000000000000E-01  1.7918056129944E+00  4.7440646622050E-01
    60  2.9500000000000E-01  1.7641335575358E+00  5.1807780164661E-01
    61  3.0000000000000E-01  1.7348664355677E+00  5.6204843820712E-01
    62  3.0500000000000E-01  1.7040529250878E+00  6.0627379740594E-01
    63  3.1000000000000E-01  1.6717427901577E+00  6.5071033825712E-01
    64  3.1500000000000E-01  1.6379868882336E+00  6.9531537466442E-01
    65  3.2000000000000E-01  1.6028371832455E+00  7.4004687394028E-01
    66  3.2500000000000E-01  1.5663467635002E+00  7.8486323926601E-01
    67  3.3000000000000E-01  1.5285698634164E+00  8.2972307906844E-01
    68  3.3500000000000E-01  1.4895618880432E+00  8.7458496643588E-01
    69  3.4000000000000E-01  1.4493794392674E+00  9.1940719181449E-01
    70  3.4500000000000E-01  1.4080803425772E+00  9.6414751231507E-01
    71  3.5000000000000E-01  1.3657236732284E+00  1.0087629010193E+00
    72  3.5500000000000E-01  1.3223697806432E+00  1.0532092997010E+00
    73  3.6000000000000E-01  1.2780803098702E+00  1.0974413783751E+00
    74  3.6500000000000E-01  1.2329182189462E+00  1.1414123050493E+00
    75  3.7000000000000E-01  1.1869477910195E+00  1.1850735289878E+00
    76  3.7500000000000E-01  1.1402346401290E+00  1.2283745806966E+00
    77  3.8000000000000E-01  1.0928457095774E+00  1.2712628917114E+00
    78  3.8500000000000E-01  1.0448492618924E+00  1.3136836371101E+00
    79  3.9000000000000E-01  9.9631485943511E-01  1.3555796034856E+00
    80  3.9500000000000E-01  9.4731333479241E-01  1.3968910849005E+00
    81  4.0000000000000E-01  8.9791675017329E-01  1.4375558091058E+00
    82  4.0500000000000E-01  8.4819834512572E-01  1.4775088960455E+00
    83  4.1000000000000E-01  7.9823247199128E-01  1.5166828503834E+00
    84  4.1500000000000E-01  7.4809451862496E-01  1.5550075894878E+00
    85  4.2000000000000E-01  6.9786081802287E-01  1.5924105079924E+00
    86  4.2500000000000E-01  6.4760854462170E-01  1.6288165797179E+00
    87  4.3000000000000E-01  5.9741559715904E-01  1.6641484973979E+00
    88  4.3500000000000E-01  5.4736046811172E-01  1.6983268503024E+00
    89  4.4000000000000E-01  4.9752209986017E-01  1.7312703394959E+00
    90  4.4500000000000E-01  4.4797972785823E-01  1.7628960301107E+00
    91  4.5000000000000E-01  3.9881271121871E-01  1.7931196396607E+00
    92  4.5500000000000E-01  3.5010035125545E-01  1.8218558610696E+00
    93  4.6000000000000E-01  3.0192169864981E-01  1.8490187187427E+00
    94  4.6500000000000E-01  2.5435535003336E-01  1.8745219556794E+00
    95  4.7000000000000E-01  2.0747923489779E-01  1.8982794493034E+00
    96  4.7500000000000E-01  1.6137039385630E-01  1.9202056533850E+00
    97  4.8000000000000E-01  1.1610474938719E-01  1.9402160631441E+00
    98  4.8500000000000E-01  7.1756870289038E-02  1.9582277003626E+00
    99  4.9000000000000E-01  2.8399731166600E-02  1.9741596150961E+00
   100  4.9500000000000E-01 -1.3895531653065E-02  1.9879334003621E+00
   101  5.0000000000000E-01 -5.5059866305210E-02  1.9994737160027E+00
   102  5.0500000000000E-01 -9.5026552144883E-02  2.0087088177635E+00
   103  5.1000000000000E-01 -1.3373144550277E-01  2.0155710875142E+00
   104  5.1500000000000E-01 -1.7111322283024E-01  2.0199975604468E+00
   105  5.2000000000000E-01 -2.0711361960275E-01  2.0219304450377E+00
   106  5.2500000000000E-01 -2.4167766334189E-01  2.0213176315407E+00
   107  5.3000000000000E-01 -2.7475389912122E-01  2.0181131847997E+00
   108  5.3500000000000E-01 -3.0629460593876E-01  2.0122778172230E+00
   109  5.4000000000000E-01 -3.3625600237062E-01  2.0037793378519E+00
   110  5.4500000000000E-01 -3.6459843996485E-01  1.9925930735842E+00
   111  5.5000000000000E-01 -3.9128658289249E-01  1.9787022587737E+00
   112  5.5500000000000E-01 -4.1628957244343E-01  1.9620983896214E+00
   113  5.6000000000000E-01 -4.3958117503755E-01  1.9427815400014E+00
   114  5.6500000000000E-01 -4.6113991251633E-01  1.9207606356254E+00
   115  5.7000000000000E-01 -4.8094917358622E-01  1.8960536837339E+00
   116  5.7500000000000E-01 -4.9899730540111E-01  1.8686879558192E+00
   117  5.8000000000000E-01 -5.1527768439735E-01  1.8387001212247E+00
   118  5.8500000000000E-01 -5.2978876562947E-01  1.8061363298246E+00
   119  5.9000000000000E-01 -5.4253410999675E-01  1.7710522423711E+00
   120  5.9500000000000E-01 -5.5352238890033E-01  1.7335130074938E+00
   121  6.0000000000000E-01 -5.6276736602443E-01  1.6935931847432E+00
   122  6.0500000000000E-01 -5.7028785609472E-01  1.6513766134973E+00
   123  6.1000000000000E-01 -5.7610766062868E-01  1.6069562279714E+00
   124  6.1500000000000E-01 -5.8025548085646E-01  1.5604338190080E+00
   125  6.2000000000000E-01 -5.8276480815610E-01  1.5119197437516E+00
   126  6.2500000000000E-01 -5.8367379251011E-01  1.4615325847418E+00
   127  6.3000000000000E-01 -5.8302508965284E-01  1.4093987603792E+00
   128  6.3500000000000E-01 -5.8086568773714E-01  1.3556520891289E+00
   129  6.4000000000000E-01 -5.7724671450249E-01  1.3004333102221E+00
   130  6.4500000000000E-01 -5.7222322607605E-01  1.2438895639967E+00
   131  6.5000000000000E-01 -5.6585397867981E-01  1.1861738353764E+00
   132  6.5500000000000E-01 -5.5820118465043E-01  1.1274443643250E+00
   133  6.6000000000000E-01 -5.4933025430331E-01  1.0678640274189E+00
   134  6.6500000000000E-01 -5.3930952528711E-01  1.0075996949682E+00
   135  6.7000000000000E-01 -5.2820998117814E-01  9.4682156835906E-01
   136  6.7500000000000E-01 -5.1610496115559E-01  8.8570250251318E-01
   137  6.8000000000000E-01 -5.0306986267786E-01  8.2441731853718E-01
   138  6.8500000000000E-01 -4.8918183914542E-01  7.6314211178077E-01
   139  6.9000000000000E-01 -4.7451949461512E-01  7.0205356075612E-01
   140  6.9500000000000E-01 -4.5916257759593E-01  6.4132824208494E-01
   141  7.0000000000000E-01 -4.4319167530097E-01  5.8114195368165E-01
   142  7.0500000000000E-01 -4.2668789680394E-01  5.2166898805700E-01
   143  7.1000000000000E-01 -4.0973231902095E-01  4.6308032628825E-01
   144  7.1500000000000E-01 -3.9240536031922E-01  4.0554157966649E-01
   145  7.2000000000000E-01 -3.7478644964025E-01  3.4921232642110E-01
   146  7.2500000000000E-01 -3.5695302892941E-01  2.9424256508345E-01
   147  7.3000000000000E-01 -3.3898350057349E-01  2.4078623697670E-01
   148  7.3500000000000E-01 -3.2092192970972E-01  1.8884928257636E-01
   149  7.4000000000000E-01 -3.0288363334803E-01  1.3874868195254E-01
   150  7.4500000000000E-01 -2.8492181203405E-01  9.0532336152273E-02
   151  7.5000000000000E-01 -2.6710410467563E-01  4.4313861455135E-02
   152  7.5500000000000E-01 -2.4949344583828E-01  1.8968429621948E-04
   153  7.6000000000000E-01 -2.3214977475809E-01 -4.1752892802188E-02
   154  7.6500000000000E-01 -2.1512944042129E-01 -8.1437713601293E-02
   155  7.7000000000000E-01 -1.9848505706801E-01 -1.1879986341211E-01
   156  7.7500000000000E-01 -1.8226535104945E-01 -1.5378584240395E-01
   157  7.8000000000000E-01 -1.6651503257148E-01 -1.8635367229694E-01
   158  7.8500000000000E-01 -1.5127469276908E-01 -2.1647293591103E-01
   159  7.9000000000000E-01 -1.3658072638272E-01 -2.4412474952404E-01
   160  7.9500000000000E-01 -1.2246528013619E-01 -2.6930166845823E-01
   161  8.0000000000000E-01 -1.0895622674225E-01 -2.9200752678528E-01
   162  8.0500000000000E-01 -9.6077164292091E-02 -3.1225721249879E-01
   163  8.1000000000000E-01 -8.3847440615717E-02 -3.3007637995571E-01
   164  8.1500000000000E-01 -7.2282202035723E-02 -3.4550110182625E-01
   165  8.2000000000000E-01 -6.1392465777177E-02 -3.5857746321380E-01
   166  8.2500000000000E-01 -5.1185215142849E-02 -3.6936110100771E-01
   167  8.3000000000000E-01 -4.1663516416871E-02 -3.7791669191126E-01
   168  8.3500000000000E-01 -3.2826656322186E-02 -3.8431739293952E-01
   169  8.4000000000000E-01 -2.4670298729006E-02 -3.8864423850658E-01
   170  8.4500000000000E-01 -1.7186659193577E-02 -3.9098549851452E-01
   171  8.5000000000000E-01 -1.0364695800021E-02 -3.9143600211620E-01
   172  8.5500000000000E-01 -4.1903146835664E-03 -3.9009643204863E-01
   173  8.6000000000000E-01  1.3534114684308E-03 -3.8707259462035E-01
   174  8.6500000000000E-01  6.2860137097497E-03 -3.8247467058522E-01
   175  8.7000000000000E-01  1.0629387749697E-02 -3.7641645224363E-01
   176  8.7500000000000E-01  1.4407547356192E-02 -3.6901457218051E-01
   177  8.8000000000000E-01  1.7646372141348E-02 -3.6038772907678E-01
   178  8.8500000000000E-01  2.0373351635279E-02 -3.5065591601669E-01
   179  8.9000000000000E-01  2.2617327551020E-02 -3.3993965665847E-01
   180  8.9500000000000E-01  2.4408236126596E-02 -3.2835925454013E-01
   181  9.0000000000000E-01  2.5776852398685E-02 -3.1603406065616E-01
   182  9.0500000000000E-01  2.6754538217240E-02 -3.0308176426647E-01
   183  9.1000000000000E-01  2.7372995752129E-02 -2.8961771168864E-01
   184  9.1500000000000E-01  2.7664028170749E-02 -2.7575425757488E-01
   185  9.2000000000000E-01  2.7659309082105E-02 -2.6160015289569E-01
   186  9.2500000000000E-01  2.7390162247485E-02 -2.4725997353955E-01
   187  9.3000000000000E-01  2.6887352951616E-02 -2.3283359309627E-01
   188  9.3500000000000E-01  2.6180892312481E-02 -2.1841570302444E-01
   189  9.4000000000000E-01  2.5299855683128E-02 -2.0409538301284E-01
   190  9.4500000000000E-01  2.4272216166348E-02 -1.8995572393420E-01
   191  9.5000000000000E-01  2.3124694124154E-02 -1.7607350536339E-01
   192  9.5500000000000E-01  2.1882623418553E-02 -1.6251892918811E-01
   193  9.6000000000000E-01  2.0569834971950E-02 -1.4935541039212E-01
   194  9.6500000000000E-01  1.9208558084142E-02 -1.3663942563520E-01
   195  9.7000000000000E-01  1.7819339786411E-02 -1.2442041978661E-01
   196  9.7500000000000E-01  1.6420982361325E-02 -1.1274077011737E-01
   197  9.8000000000000E-01  1.5030499001897E-02 -1.0163580739842E-01
   198  9.8500000000000E-01  1.3663087432166E-02 -9.1133892706347E-02
   199  9.9000000000000E-01  1.2332121163141E-02 -8.1256548305221E-02
   200  9.9500000000000E-01  1.1049157910561E-02 -7.2018640544453E-02
   201  1.0000000000000E+00  9.8239645703445E-03 -6.3428612335427E-02
   202  1.0050000000000E+00  8.6645580046658E-03 -5.5488762358967E-02
   203  1.0100000000000E+00  7.5772607752166E-03 -4.8195567824582E-02
   204  1.0150000000000E+00  6.5667708414972E-03 -4.1540047266511E-02
   205  1.0200000000000E+00  5.6362441366425E-03 -3.5508159566807E-02
   206  1.0250000000000E+00  4.7873888355941E-03 -3.0081235125717E-02
   207  1.0300000000000E+00  4.0205700516611E-03 -2.5236434884622E-02
   208  1.0350000000000E+00  3.3349236169994E-03 -2.0947232691728E-02
   209  1.0400000000000E+00  2.7284775480269E-03 -1.7183916360137E-02
   210  1.0450000000000E+00  2.1982797472958E-03 -1.3914102644888E-02
   211  1.0500000000000E+00  1.7405304592361E-03 -1.1103261289330E-02
   212  1.0550000000000E+00  1.3507158080246E-03 -8.7152380086189E-03
   213  1.0600000000000E+00  1.0237609081254E-03 -6.7128197650921E-03
   214  1.0650000000000E+00  7.5412303436235E-04 -5.0581499440934E-03
   215  1.0700000000000E+00  5.3598461817591E-04 -3.7133753293143E-03
   216  1.0750000000000E+00  3.6359964355232E-04 -2.6416535736652E-03
   217  1.0800000000000E+00  2.3280927742177E-04 -1.8110197754038E-03
   218  1.0850000000000E+00  1.3833763351185E-04 -1.1880023343810E-03
   219  1.0900000000000E+00  7.3311929993604E-05 -7.3656796588038E-04
   220  1.0950000000000E+00  3.1593396830969E-05 -4.2384606668447E-04
   221  1.1000000000000E+00  7.5014107298470E-06 -2.1959639163445E-04
   222  1.1050000000000E+00 -4.0356993758807E-06 -9.6680763846766E-05
   223  1.1100000000000E+00 -7.4122827420602E-06 -3.1322539798675E-05
   224  1.1150000000000E+00 -6.2771444548781E-06 -3.3485204169660E-06
   225  1.1200000000000E+00 -3.4447555999551E-06  3.5135986789337E-06
   226  1.1250000000000E+00 -1.0397019101776E-06  2.0167162864561E-06
   227  1.1300000000000E+00 -2.0572388603808E-08  5.6021013979282E-08
   228  1.1350000000000E+00  5.7485178632110E-08 -1.6758115846152E-07
   229  1.1400000000000E+00 -2.6781416147702E-08  6.6824317032436E-08
   230  1.1450  0. -0.
   231  1.1500  0. -0.
   232  1.1550 -0.  0.
   233  1.1600  0.  0.
   234  1.1650  0.  0.
   235  1.1700  0.  0.
   236  1.1750  0.  0.
   237  1.1800  0.  0.
   238  1.1850  0.  0.
   239  1.1900  0.  0.
   240  1.1950  0.  0.
   241  1.2000  0.  0.
   242  1.2050  0.  0.
   243  1.2100  0.  0.
   244  1.2150  0.  0.
   245  1.2200  0.  0.
   246  1.2250  0.  0.
   247  1.2300  0.  0.
   248  1.2350  0.  0.
   249  1.2400  0.  0.
   250  1.2450  0.  0.
   251  1.2500  0.  0.
   252  1.2550  0.  0.
   253  1.2600  0.  0.
   254  1.2650  0.  0.
   255  1.2700  0.  0.
   256  1.2750  0.  0.
   257  1.2800  0.  0.
   258  1.2850  0.  0.
   259  1.2900  0.  0.
   260  1.2950  0.  0.
   261  1.3000  0.  0.
   262  1.3050  0.  0.
   263  1.3100  0.  0.
   264  1.3150  0.  0.
   265  1.3200  0.  0.
   266  1.3250  0.  0.
   267  1.3300  0.  0.
   268  1.3350  0.  0.
   269  1.3400  0.  0.
   270  1.3450  0.  0.
   271  1.3500  0.  0.
   272  1.3550  0.  0.
   273  1.3600  0.  0.
   274  1.3650  0.  0.
   275  1.3700  0.  0.
   276  1.3750  0.  0.
   277  1.3800  0.  0.
   278  1.3850  0.  0.
   279  1.3900  0.  0.
   280  1.3950  0.  0.
   281  1.4000  0.  0.
   282  1.4050  0.  0.
   283  1.4100  0.  0.
   284  1.4150  0.  0.
   285  1.4200  0.  0.
   286  1.4250  0.  0.
   287  1.4300  0.  0.
   288  1.4350  0.  0.
   289  1.4400  0.  0.
   290  1.4450  0.  0.
   291  1.4500  0.  0.
   292  1.4550  0.  0.
   293  1.4600  0.  0.
   294  1.4650  0.  0.
   295  1.4700  0.  0.
   296  1.4750  0.  0.
   297  1.4800  0.  0.
   298  1.4850  0.  0.
   299  1.4900  0.  0.
   300  1.4950  0.  0.
   301  1.5000  0.  0.
   302  1.5050  0.  0.
   303  1.5100  0.  0.
   304  1.5150  0.  0.
   305  1.5200  0.  0.
   306  1.5250  0.  0.
   307  1.5300  0.  0.
   308  1.5350  0.  0.
   309  1.5400  0.  0.
   310  1.5450  0.  0.
   311  1.5500  0.  0.
   312  1.5550  0.  0.
   313  1.5600  0.  0.
   314  1.5650  0.  0.
   315  1.5700  0.  0.
   316  1.5750  0.  0.
   317  1.5800  0.  0.
   318  1.5850  0.  0.
   319  1.5900  0.  0.
   320  1.5950  0.  0.
   321  1.6000  0.  0.
   322  1.6050  0.  0.
   323  1.6100  0.  0.
   324  1.6150  0.  0.
   325  1.6200  0.  0.
   326  1.6250  0.  0.
   327  1.6300  0.  0.
   328  1.6350  0.  0.
   329  1.6400  0.  0.
   330  1.6450  0.  0.
   331  1.6500  0.  0.
   332  1.6550  0.  0.
   333  1.6600  0.  0.
   334  1.6650  0.  0.
   335  1.6700  0.  0.
   336  1.6750  0.  0.
   337  1.6800  0.  0.
   338  1.6850  0.  0.
   339  1.6900  0.  0.
   340  1.6950  0.  0.
   341  1.7000  0.  0.
   342  1.7050  0.  0.
   343  1.7100  0.  0.
   344  1.7150  0.  0.
   345  1.7200  0.  0.
   346  1.7250  0.  0.
   347  1.7300  0.  0.
   348  1.7350  0.  0.
   349  1.7400  0.  0.
   350  1.7450  0.  0.
   351  1.7500  0.  0.
   352  1.7550  0.  0.
   353  1.7600  0.  0.
   354  1.7650  0.  0.
   355  1.7700  0.  0.
   356  1.7750  0.  0.
   357  1.7800  0.  0.
   358  1.7850  0.  0.
   359  1.7900  0.  0.
   360  1.7950  0.  0.
   361  1.8000  0.  0.
   362  1.8050  0.  0.
   363  1.8100  0.  0.
   364  1.8150  0.  0.
   365  1.8200  0.  0.
   366  1.8250  0.  0.
   367  1.8300  0.  0.
   368  1.8350  0.  0.
   369  1.8400  0.  0.
   370  1.8450  0.  0.
   371  1.8500  0.  0.
   372  1.8550  0.  0.
   373  1.8600  0.  0.
   374  1.8650  0.  0.
   375  1.8700  0.  0.
   376  1.8750  0.  0.
   377  1.8800  0.  0.
   378  1.8850  0.  0.
   379  1.8900  0.  0.
   380  1.8950  0.  0.
   381  1.9000  0.  0.
   382  1.9050  0.  0.
   383  1.9100  0.  0.
   384  1.9150  0.  0.
   385  1.9200  0.  0.
   386  1.9250  0.  0.
   387  1.9300  0.  0.
   388  1.9350  0.  0.
   389  1.9400  0.  0.
   390  1.9450  0.  0.
   391  1.9500  0.  0.
   392  1.9550  0.  0.
   393  1.9600  0.  0.
   394  1.9650  0.  0.
   395  1.9700  0.  0.
   396  1.9750  0.  0.
   397  1.9800  0.  0.
   398  1.9850  0.  0.
   399  1.9900  0.  0.
   400  1.9950  0.  0.
   401  2.0000  0.  0.
   402  2.0050  0.  0.
   403  2.0100  0.  0.
   404  2.0150  0.  0.
   405  2.0200  0.  0.
   406  2.0250  0.  0.
   407  2.0300  0.  0.
   408  2.0350  0.  0.
   409  2.0400  0.  0.
   410  2.0450  0.  0.
   411  2.0500  0.  0.
   412  2.0550  0.  0.
   413  2.0600  0.  0.
   414  2.0650  0.  0.
   415  2.0700  0.  0.
   416  2.0750  0.  0.
   417  2.0800  0.  0.
   418  2.0850  0.  0.
   419  2.0900  0.  0.
   420  2.0950  0.  0.
   421  2.1000  0.  0.
   422  2.1050  0.  0.
   423  2.1100  0.  0.
   424  2.1150  0.  0.
   425  2.1200  0.  0.
   426  2.1250  0.  0.
   427  2.1300  0.  0.
   428  2.1350  0.  0.
   429  2.1400  0.  0.
   430  2.1450  0.  0.
   431  2.1500  0.  0.
   432  2.1550  0.  0.
   433  2.1600  0.  0.
   434  2.1650  0.  0.
   435  2.1700  0.  0.
   436  2.1750  0.  0.
   437  2.1800  0.  0.
   438  2.1850  0.  0.
   439  2.1900  0.  0.
   440  2.1950  0.  0.
   441  2.2000  0.  0.
   442  2.2050  0.  0.
   443  2.2100  0.  0.
   444  2.2150  0.  0.
   445  2.2200  0.  0.
   446  2.2250  0.  0.
   447  2.2300  0.  0.
   448  2.2350  0.  0.
   449  2.2400  0.  0.
   450  2.2450  0.  0.
   451  2.2500  0.  0.
   452  2.2550  0.  0.
   453  2.2600  0.  0.
   454  2.2650  0.  0.
   455  2.2700  0.  0.
   456  2.2750  0.  0.
   457  2.2800  0.  0.
   458  2.2850  0.  0.
   459  2.2900  0.  0.
   460  2.2950  0.  0.
   461  2.3000  0.  0.
   462  2.3050  0.  0.
   463  2.3100  0.  0.
   464  2.3150  0.  0.
   465  2.3200  0.  0.
   466  2.3250  0.  0.
   467  2.3300  0.  0.
   468  2.3350  0.  0.
   469  2.3400  0.  0.
   470  2.3450  0.  0.
   471  2.3500  0.  0.
   472  2.3550  0.  0.
   473  2.3600  0.  0.
   474  2.3650  0.  0.
   475  2.3700  0.  0.
   476  2.3750  0.  0.
   477  2.3800  0.  0.
   478  2.3850  0.  0.
   479  2.3900  0.  0.
   480  2.3950  0.  0.
   481  2.4000  0.  0.
   482  2.4050  0.  0.
   483  2.4100  0.  0.
   484  2.4150  0.  0.
   485  2.4200  0.  0.
   486  2.4250  0.  0.
   487  2.4300  0.  0.
   488  2.4350  0.  0.
   489  2.4400  0.  0.
   490  2.4450  0.  0.
   491  2.4500  0.  0.
   492  2.4550  0.  0.
   493  2.4600  0.  0.
   494  2.4650  0.  0.
   495  2.4700  0.  0.
   496  2.4750  0.  0.
   497  2.4800  0.  0.
   498  2.4850  0.  0.
   499  2.4900  0.  0.
   500  2.4950  0.  0.
   501  2.5000  0.  0.
   502  2.5050  0.  0.
   503  2.5100  0.  0.
   504  2.5150  0.  0.
   505  2.5200  0.  0.
   506  2.5250  0.  0.
   507  2.5300  0.  0.
   508  2.5350  0.  0.
   509  2.5400  0.  0.
   510  2.5450  0.  0.
   511  2.5500  0.  0.
   512  2.5550  0.  0.
   513  2.5600  0.  0.
   514  2.5650  0.  0.
   515  2.5700  0.  0.
   516  2.5750  0.  0.
   517  2.5800  0.  0.
   518  2.5850  0.  0.
   519  2.5900  0.  0.
   520  2.5950  0.  0.
   521  2.6000  0.  0.
   522  2.6050  0.  0.
   523  2.6100  0.  0.
   524  2.6150  0.  0.
   525  2.6200  0.  0.
   526  2.6250  0.  0.
   527  2.6300  0.  0.
   528  2.6350  0.  0.
   529  2.6400  0.  0.
   530  2.6450  0.  0.
   531  2.6500  0.  0.
   532  2.6550  0.  0.
   533  2.6600  0.  0.
   534  2.6650  0.  0.
   535  2.6700  0.  0.
   536  2.6750  0.  0.
   537  2.6800  0.  0.
   538  2.6850  0.  0.
   539  2.6900  0.  0.
   540  2.6950  0.  0.
   541  2.7000  0.  0.
   542  2.7050  0.  0.
   543  2.7100  0.  0.
   544  2.7150  0.  0.
   545  2.7200  0.  0.
   546  2.7250  0.  0.
   547  2.7300  0.  0.
   548  2.7350  0.  0.
   549  2.7400  0.  0.
   550  2.7450  0.  0.
   551  2.7500  0.  0.
   552  2.7550  0.  0.
   553  2.7600  0.  0.
   554  2.7650  0.  0.
   555  2.7700  0.  0.
   556  2.7750  0.  0.
   557  2.7800  0.  0.
   558  2.7850  0.  0.
   559  2.7900  0.  0.
   560  2.7950  0.  0.
   561  2.8000  0.  0.
   562  2.8050  0.  0.
   563  2.8100  0.  0.
   564  2.8150  0.  0.
   565  2.8200  0.  0.
   566  2.8250  0.  0.
   567  2.8300  0.  0.
   568  2.8350  0.  0.
   569  2.8400  0.  0.
   570  2.8450  0.  0.
   571  2.8500  0.  0.
   572  2.8550  0.  0.
   573  2.8600  0.  0.
   574  2.8650  0.  0.
   575  2.8700  0.  0.
   576  2.8750  0.  0.
   577  2.8800  0.  0.
   578  2.8850  0.  0.
   579  2.8900  0.  0.
   580  2.8950  0.  0.
   581  2.9000  0.  0.
   582  2.9050  0.  0.
   583  2.9100  0.  0.
   584  2.9150  0.  0.
   585  2.9200  0.  0.
   586  2.9250  0.  0.
   587  2.9300  0.  0.
   588  2.9350  0.  0.
   589  2.9400  0.  0.
   590  2.9450  0.  0.
   591  2.9500  0.  0.
   592  2.9550  0.  0.
   593  2.9600  0.  0.
   594  2.9650  0.  0.
   595  2.9700  0.  0.
   596  2.9750  0.  0.
   597  2.9800  0.  0.
   598  2.9850  0.  0.
   599  2.9900  0.  0.
   600  2.9950  0.  0.
   601  3.0000  0.  0.
   602  3.0050  0.  0.
   603  3.0100  0.  0.
   604  3.0150  0.  0.
   605  3.0200  0.  0.
   606  3.0250  0.  0.
   607  3.0300  0.  0.
   608  3.0350  0.  0.
   609  3.0400  0.  0.
   610  3.0450  0.  0.
   611  3.0500  0.  0.
   612  3.0550  0.  0.
   613  3.0600  0.  0.
   614  3.0650  0.  0.
   615  3.0700  0.  0.
   616  3.0750  0.  0.
   617  3.0800  0.  0.
   618  3.0850  0.  0.
   619  3.0900  0.  0.
   620  3.0950  0.  0.
   621  3.1000  0.  0.
   622  3.1050  0.  0.
   623  3.1100  0.  0.
   624  3.1150  0.  0.
   625  3.1200  0.  0.
   626  3.1250  0.  0.
   627  3.1300  0.  0.
   628  3.1350  0.  0.
   629  3.1400  0.  0.
   630  3.1450  0.  0.
   631  3.1500  0.  0.
   632  3.1550  0.  0.
   633  3.1600  0.  0.
   634  3.1650  0.  0.
   635  3.1700  0.  0.
   636  3.1750  0.  0.
   637  3.1800  0.  0.
   638  3.1850  0.  0.
   639  3.1900  0.  0.
   640  3.1950  0.  0.
   641  3.2000  0.  0.
   642  3.2050  0.  0.
   643  3.2100  0.  0.
   644  3.2150  0.  0.
   645  3.2200  0.  0.
   646  3.2250  0.  0.
   647  3.2300  0.  0.
   648  3.2350  0.  0.
   649  3.2400  0.  0.
   650  3.2450  0.  0.
   651  3.2500  0.  0.
   652  3.2550  0.  0.
   653  3.2600  0.  0.
   654  3.2650  0.  0.
   655  3.2700  0.  0.
   656  3.2750  0.  0.
   657  3.2800  0.  0.
   658  3.2850  0.  0.
   659  3.2900  0.  0.
   660  3.2950  0.  0.
   661  3.3000  0.  0.
   662  3.3050  0.  0.
   663  3.3100  0.  0.
   664  3.3150  0.  0.
   665  3.3200  0.  0.
   666  3.3250  0.  0.
   667  3.3300  0.  0.
   668  3.3350  0.  0.
   669  3.3400  0.  0.
   670  3.3450  0.  0.
   671  3.3500  0.  0.
   672  3.3550  0.  0.
   673  3.3600  0.  0.
   674  3.3650  0.  0.
   675  3.3700  0.  0.
   676  3.3750  0.  0.
   677  3.3800  0.  0.
   678  3.3850  0.  0.
   679  3.3900  0.  0.
   680  3.3950  0.  0.
   681  3.4000  0.  0.
   682  3.4050  0.  0.
   683  3.4100  0.  0.
   684  3.4150  0.  0.
   685  3.4200  0.  0.
   686  3.4250  0.  0.
   687  3.4300  0.  0.
   688  3.4350  0.  0.
   689  3.4400  0.  0.
   690  3.4450  0.  0.
   691  3.4500  0.  0.
   692  3.4550  0.  0.
   693  3.4600  0.  0.
   694  3.4650  0.  0.
   695  3.4700  0.  0.
   696  3.4750  0.  0.
   697  3.4800  0.  0.
   698  3.4850  0.  0.
   699  3.4900  0.  0.
   700  3.4950  0.  0.
   701  3.5000  0.  0.
   702  3.5050  0.  0.
   703  3.5100  0.  0.
   704  3.5150  0.  0.
   705  3.5200  0.  0.
   706  3.5250  0.  0.
   707  3.5300  0.  0.
   708  3.5350  0.  0.
   709  3.5400  0.  0.
   710  3.5450  0.  0.
   711  3.5500  0.  0.
   712  3.5550  0.  0.
   713  3.5600  0.  0.
   714  3.5650  0.  0.
   715  3.5700  0.  0.
   716  3.5750  0.  0.
   717  3.5800  0.  0.
   718  3.5850  0.  0.
   719  3.5900  0.  0.
   720  3.5950  0.  0.
   721  3.6000  0.  0.
   722  3.6050  0.  0.
   723  3.6100  0.  0.
   724  3.6150  0.  0.
   725  3.6200  0.  0.
   726  3.6250  0.  0.
   727  3.6300  0.  0.
   728  3.6350  0.  0.
   729  3.6400  0.  0.
   730  3.6450  0.  0.
   731  3.6500  0.  0.
   732  3.6550  0.  0.
   733  3.6600  0.  0.
   734  3.6650  0.  0.
   735  3.6700  0.  0.
   736  3.6750  0.  0.
   737  3.6800  0.  0.
   738  3.6850  0.  0.
   739  3.6900  0.  0.
   740  3.6950  0.  0.
   741  3.7000  0.  0.
   742  3.7050  0.  0.
   743  3.7100  0.  0.
   744  3.7150  0.  0.
   745  3.7200  0.  0.
   746  3.7250  0.  0.
   747  3.7300  0.  0.
   748  3.7350  0.  0.
   749  3.7400  0.  0.
   750  3.7450  0.  0.
   751  3.7500  0.  0.
   752  3.7550  0.  0.
   753  3.7600  0.  0.
   754  3.7650  0.  0.
   755  3.7700  0.  0.
   756  3.7750  0.  0.
   757  3.7800  0.  0.
   758  3.7850  0.  0.
   759  3.7900  0.  0.
   760  3.7950  0.  0.
   761  3.8000  0.  0.
   762  3.8050  0.  0.
   763  3.8100  0.  0.
   764  3.8150  0.  0.
   765  3.8200  0.  0.
   766  3.8250  0.  0.
   767  3.8300  0.  0.
   768  3.8350  0.  0.
   769  3.8400  0.  0.
   770  3.8450  0.  0.
   771  3.8500  0.  0.
   772  3.8550  0.  0.
   773  3.8600  0.  0.
   774  3.8650  0.  0.
   775  3.8700  0.  0.
   776  3.8750  0.  0.
   777  3.8800  0.  0.
   778  3.8850  0.  0.
   779  3.8900  0.  0.
   780  3.8950  0.  0.
   781  3.9000  0.  0.
   782  3.9050  0.  0.
   783  3.9100  0.  0.
   784  3.9150  0.  0.
   785  3.9200  0.  0.
   786  3.9250  0.  0.
   787  3.9300  0.  0.
   788  3.9350  0.  0.
   789  3.9400  0.  0.
   790  3.9450  0.  0.
   791  3.9500  0.  0.
   792  3.9550  0.  0.
   793  3.9600  0.  0.
   794  3.9650  0.  0.
   795  3.9700  0.  0.
   796  3.9750  0.  0.
   797  3.9800  0.  0.
   798  3.9850  0.  0.
   799  3.9900  0.  0.
   800  3.9950  0.  0.
   801  4.0000  0.  0.
   802  4.0050  0.  0.
   803  4.0100  0.  0.
   804  4.0150  0.  0.
   805  4.0200  0.  0.
   806  4.0250  0.  0.
   807  4.0300  0.  0.
   808  4.0350  0.  0.
   809  4.0400  0.  0.
   810  4.0450  0.  0.
   811  4.0500  0.  0.
   812  4.0550  0.  0.
   813  4.0600  0.  0.
   814  4.0650  0.  0.
   815  4.0700  0.  0.
   816  4.0750  0.  0.
   817  4.0800  0.  0.
   818  4.0850  0.  0.
   819  4.0900  0.  0.