He    ONCVPSP-4.0.1  r_core=   1.25127   1.13028
      2.0000      2.0000      210716    zatom,zion,pspd
     8      11   1     4   600     0    pspcod,pspxc,lmax,lloc,mmax,r2well
  5.99000000  0.00000000  0.00000000    rchrg fchrg qchrg
     2     1     0     0     0    nproj
     1     1           extension_switch
   0                        -3.5263548949074E+00 -8.2624939032323E-01
     1  0.0000000000000E+00 -1.2875161603532E-08  2.8243502675496E-08
     2  1.0000000000000E-02  9.5780945273468E-02 -2.9931463462445E-02
     3  2.0000000000000E-02  1.9125223093774E-01 -5.9668408746157E-02
     4  3.0000000000000E-02  2.8610662636066E-01 -8.9018357983848E-02
     5  4.0000000000000E-02  3.8004167917695E-01 -1.1779277649839E-01
     6  5.0000000000000E-02  4.7276190879823E-01 -1.4580870880440E-01
     7  6.0000000000000E-02  5.6398077508551E-01 -1.7289003388422E-01
     8  7.0000000000000E-02  6.5342236330019E-01 -1.9886824834846E-01
     9  8.0000000000000E-02  7.4082273932495E-01 -2.2358271433438E-01
    10  9.0000000000000E-02  8.2593094416689E-01 -2.4688034166025E-01
    11  1.0000000000000E-01  9.0850961327292E-01 -2.6861470924899E-01
    12  1.1000000000000E-01  9.8833522348111E-01 -2.8864466741063E-01
    13  1.2000000000000E-01  1.0651979877442E+00 -3.0683249839971E-01
    14  1.3000000000000E-01  1.1389014343248E+00 -3.2304174590804E-01
    15  1.4000000000000E-01  1.2092617222360E+00 -3.3713485306237E-01
    16  1.5000000000000E-01  1.2761067575905E+00 -3.4897077147681E-01
    17  1.6000000000000E-01  1.3392751856336E+00 -3.5840271960051E-01
    18  1.7000000000000E-01  1.3986153400578E+00 -3.6527627593657E-01
    19  1.8000000000000E-01  1.4539842343837E+00 -3.6942799097462E-01
    20  1.9000000000000E-01  1.5052466795104E+00 -3.7068469054937E-01
    21  2.0000000000000E-01  1.5522746069436E+00 -3.6886362289990E-01
    22  2.1000000000000E-01  1.5949466688005E+00 -3.6377357246114E-01
    23  2.2000000000000E-01  1.6331481737380E+00 -3.5521702628814E-01
    24  2.3000000000000E-01  1.6667714028775E+00 -3.4299343528622E-01
    25  2.4000000000000E-01  1.6957163321623E+00 -3.2690356372983E-01
    26  2.5000000000000E-01  1.7198917680724E+00 -3.0675486880631E-01
    27  2.6000000000000E-01  1.7392168829960E+00 -2.8236779923381E-01
    28  2.7000000000000E-01  1.7536231156707E+00 -2.5358285061196E-01
    29  2.8000000000000E-01  1.7630563818198E+00 -2.2026816734335E-01
    30  2.9000000000000E-01  1.7674795212963E+00 -1.8232743892939E-01
    31  3.0000000000000E-01  1.7668748915353E+00 -1.3970780425977E-01
    32  3.1000000000000E-01  1.7612470036720E+00 -9.2407453008907E-02
    33  3.2000000000000E-01  1.7506250879657E+00 -4.0482599930470E-02
    34  3.3000000000000E-01  1.7350654697011E+00  1.5946493184162E-02
    35  3.4000000000000E-01  1.7146536359098E+00  7.6690761179093E-02
    36  3.5000000000000E-01  1.6895058772489E+00  1.4148913305927E-01
    37  3.6000000000000E-01  1.6597703982227E+00  2.1000713371643E-01
    38  3.7000000000000E-01  1.6256278024645E+00  2.8183749039234E-01
    39  3.8000000000000E-01  1.5872908776401E+00  3.5650288402429E-01
    40  3.9000000000000E-01  1.5450036261704E+00  4.3346091647245E-01
    41  4.0000000000000E-01  1.4990395126843E+00  5.1211128896474E-01
    42  4.1000000000000E-01  1.4496989260792E+00  5.9180510748951E-01
    43  4.2000000000000E-01  1.3973058823235E+00  6.7185615014495E-01
    44  4.3000000000000E-01  1.3422040226681E+00  7.5155385259795E-01
    45  4.4000000000000E-01  1.2847519896673E+00  8.3017769383781E-01
    46  4.5000000000000E-01  1.2253182892742E+00  9.0701259828907E-01
    47  4.6000000000000E-01  1.1642757702472E+00  9.8136491484955E-01
    48  4.7000000000000E-01  1.1019958712249E+00  1.0525784910309E+00
    49  4.8000000000000E-01  1.0388428002555E+00  1.1200503331932E+00
    50  4.9000000000000E-01  9.7516782062729E-01  1.1832453334995E+00
    51  5.0000000000000E-01  9.1130382001489E-01  1.2417095517200E+00
    52  5.1000000000000E-01  8.4756033693377E-01  1.2950815658423E+00
    53  5.2000000000000E-01  7.8421920918908E-01  1.3431014493833E+00
    54  5.3000000000000E-01  7.2153099354806E-01  1.3856169944862E+00
    55  5.4000000000000E-01  6.5971228462629E-01  1.4225868768137E+00
    56  5.5000000000000E-01  5.9894403453536E-01  1.4540805487831E+00
    57  5.6000000000000E-01  5.3937094398223E-01  1.4802747491443E+00
    58  5.7000000000000E-01  4.8110196120322E-01  1.5014466261261E+00
    59  5.8000000000000E-01  4.2421188847563E-01  1.5179635848165E+00
    60  5.9000000000000E-01  3.6874405820546E-01  1.5302700833115E+00
    61  6.0000000000000E-01  3.1471400304151E-01  1.5388717125122E+00
    62  6.1000000000000E-01  2.6211400844186E-01  1.5443169973497E+00
    63  6.2000000000000E-01  2.1091840292528E-01  1.5471774488575E+00
    64  6.3000000000000E-01  1.6108941211949E-01  1.5480264733791E+00
    65  6.4000000000000E-01  1.1258337879773E-01  1.5474178041731E+00
    66  6.5000000000000E-01  6.5357133349448E-02  1.5458641591722E+00
    67  6.6000000000000E-01  1.9374288342235E-02  1.5438168446995E+00
    68  6.7000000000000E-01 -2.5388772443759E-02  1.5416470173201E+00
    69  6.8000000000000E-01 -6.8937435579297E-02  1.5396292842140E+00
    70  6.9000000000000E-01 -1.1125414280391E-01  1.5379282668753E+00
    71  7.0000000000000E-01 -1.5229461169865E-01  1.5365886747137E+00
    72  7.1000000000000E-01 -1.9198515761944E-01  1.5355293362486E+00
    73  7.2000000000000E-01 -2.3022124870975E-01  1.5345415187531E+00
    74  7.3000000000000E-01 -2.6686738683500E-01  1.5332917358408E+00
    75  7.4000000000000E-01 -3.0175836410519E-01  1.5313291005665E+00
    76  7.5000000000000E-01 -3.3470189865347E-01  1.5280971335763E+00
    77  7.6000000000000E-01 -3.6548260601340E-01  1.5229497864632E+00
    78  7.7000000000000E-01 -3.9386721535606E-01  1.5151712946584E+00
    79  7.8000000000000E-01 -4.1961089461500E-01  1.5039993368651E+00
    80  7.9000000000000E-01 -4.4246450671008E-01  1.4886508539659E+00
    81  8.0000000000000E-01 -4.6218258216713E-01  1.4683497739369E+00
    82  8.1000000000000E-01 -4.7853176277249E-01  1.4423558045339E+00
    83  8.2000000000000E-01 -4.9129944766429E-01  1.4099933956883E+00
    84  8.3000000000000E-01 -5.0030235839057E-01  1.3706799412456E+00
    85  8.4000000000000E-01 -5.0539473363169E-01  1.3239522866007E+00
    86  8.5000000000000E-01 -5.0647586788161E-01  1.2694906357398E+00
    87  8.6000000000000E-01 -5.0349672148738E-01  1.2071390079988E+00
    88  8.7000000000000E-01 -4.9646535182220E-01  1.1369214803476E+00
    89  8.8000000000000E-01 -4.8545094646529E-01  1.0590535630739E+00
    90  8.9000000000000E-01 -4.7058627823123E-01  9.7394819235575E-01
    91  9.0000000000000E-01 -4.5206844760600E-01  8.8221597850049E-01
    92  9.1000000000000E-01 -4.3015782924075E-01  7.8465951904444E-01
    93  9.2000000000000E-01 -4.0517519405172E-01  6.8226176627297E-01
    94  9.3000000000000E-01 -3.7749703546312E-01  5.7616862350220E-01
    95  9.4000000000000E-01 -3.4754918558684E-01  4.6766612783525E-01
    96  9.5000000000000E-01 -3.1579886280315E-01  3.5815275320254E-01
    97  9.6000000000000E-01 -2.8274534446431E-01  2.4910753060246E-01
    98  9.7000000000000E-01 -2.4890950553717E-01  1.4205482715444E-01
    99  9.8000000000000E-01 -2.1482250432599E-01  3.8526746950472E-02
   100  9.9000000000000E-01 -1.8101392858564E-01 -5.9975789441920E-02
   101  1.0000000000000E+00 -1.4799973815965E-01 -1.5202216712212E-01
   102  1.0100000000000E+00 -1.1627035291244E-01 -2.3629025150997E-01
   103  1.0200000000000E+00 -8.6279236619129E-02 -3.1160247182667E-01
   104  1.0300000000000E+00 -5.8432318395228E-02 -3.7695871049203E-01
   105  1.0400000000000E+00 -3.3078573370395E-02 -4.3156497075290E-01
   106  1.0500000000000E+00 -1.0502054121494E-02 -4.7485690271799E-01
   107  1.0600000000000E+00  9.0843753502329E-03 -5.0651740576021E-01
   108  1.0700000000000E+00  2.5543399273616E-02 -5.2648768852417E-01
   109  1.0800000000000E+00  3.8815554573498E-02 -5.3497135260871E-01
   110  1.0900000000000E+00  4.8919391479900E-02 -5.3243126612859E-01
   111  1.1000000000000E+00  5.5949465172697E-02 -5.1957920315793E-01
   112  1.1100000000000E+00  6.0072198454174E-02 -4.9735843846731E-01
   113  1.1200000000000E+00  6.1519719503177E-02 -4.6691969556389E-01
   114  1.1300000000000E+00  6.0581842388810E-02 -4.2959105320153E-01
   115  1.1400000000000E+00  5.7596465362381E-02 -3.8684279703704E-01
   116  1.1500000000000E+00  5.2939253534390E-02 -3.4025046066827E-01
   117  1.1600000000000E+00  4.7012414940791E-02 -2.9145504935482E-01
   118  1.1700000000000E+00  4.0232189206221E-02 -2.4211881270628E-01
   119  1.1800000000000E+00  3.3015956437012E-02 -1.9387997678296E-01
   120  1.1900000000000E+00  2.5769469751781E-02 -1.4830806938345E-01
   121  1.2000000000000E+00  1.8876482945148E-02 -1.0686458656863E-01
   122  1.2100000000000E+00  1.2683248847192E-02 -7.0856237571848E-02
   123  1.2200000000000E+00  7.4880935734316E-03 -4.1398412178420E-02
   124  1.2300000000000E+00  3.5350320164157E-03 -1.9390435803026E-02
   125  1.2400000000000E+00  9.9860859960966E-04 -5.4478008127036E-03
   126  1.2500000000000E+00  2.8466805000890E-05 -1.5472241120887E-04
   127  1.2600000000000E+00  3.8856387997595E-06 -2.1120437301794E-05
   128  1.2700000000000E+00 -1.1637503177529E-06  6.3387631459942E-06
   129  1.28  0. -0.
   130  1.29  0.  0.
   131  1.30  0.  0.
   132  1.31  0.  0.
   133  1.32  0.  0.
   134  1.33  0.  0.
   135  1.34  0.  0.
   136  1.35  0.  0.
   137  1.36  0.  0.
   138  1.37  0.  0.
   139  1.38  0.  0.
   140  1.39  0.  0.
   141  1.40  0.  0.
   142  1.41  0.  0.
   143  1.42  0.  0.
   144  1.43  0.  0.
   145  1.44  0.  0.
   146  1.45  0.  0.
   147  1.46  0.  0.
   148  1.47  0.  0.
   149  1.48  0.  0.
   150  1.49  0.  0.
   151  1.50  0.  0.
   152  1.51  0.  0.
   153  1.52  0.  0.
   154  1.53  0.  0.
   155  1.54  0.  0.
   156  1.55  0.  0.
   157  1.56  0.  0.
   158  1.57  0.  0.
   159  1.58  0.  0.
   160  1.59  0.  0.
   161  1.60  0.  0.
   162  1.61  0.  0.
   163  1.62  0.  0.
   164  1.63  0.  0.
   165  1.64  0.  0.
   166  1.65  0.  0.
   167  1.66  0.  0.
   168  1.67  0.  0.
   169  1.68  0.  0.
   170  1.69  0.  0.
   171  1.70  0.  0.
   172  1.71  0.  0.
   173  1.72  0.  0.
   174  1.73  0.  0.
   175  1.74  0.  0.
   176  1.75  0.  0.
   177  1.76  0.  0.
   178  1.77  0.  0.
   179  1.78  0.  0.
   180  1.79  0.  0.
   181  1.80  0.  0.
   182  1.81  0.  0.
   183  1.82  0.  0.
   184  1.83  0.  0.
   185  1.84  0.  0.
   186  1.85  0.  0.
   187  1.86  0.  0.
   188  1.87  0.  0.
   189  1.88  0.  0.
   190  1.89  0.  0.
   191  1.90  0.  0.
   192  1.91  0.  0.
   193  1.92  0.  0.
   194  1.93  0.  0.
   195  1.94  0.  0.
   196  1.95  0.  0.
   197  1.96  0.  0.
   198  1.97  0.  0.
   199  1.98  0.  0.
   200  1.99  0.  0.
   201  2.00  0.  0.
   202  2.01  0.  0.
   203  2.02  0.  0.
   204  2.03  0.  0.
   205  2.04  0.  0.
   206  2.05  0.  0.
   207  2.06  0.  0.
   208  2.07  0.  0.
   209  2.08  0.  0.
   210  2.09  0.  0.
   211  2.10  0.  0.
   212  2.11  0.  0.
   213  2.12  0.  0.
   214  2.13  0.  0.
   215  2.14  0.  0.
   216  2.15  0.  0.
   217  2.16  0.  0.
   218  2.17  0.  0.
   219  2.18  0.  0.
   220  2.19  0.  0.
   221  2.20  0.  0.
   222  2.21  0.  0.
   223  2.22  0.  0.
   224  2.23  0.  0.
   225  2.24  0.  0.
   226  2.25  0.  0.
   227  2.26  0.  0.
   228  2.27  0.  0.
   229  2.28  0.  0.
   230  2.29  0.  0.
   231  2.30  0.  0.
   232  2.31  0.  0.
   233  2.32  0.  0.
   234  2.33  0.  0.
   235  2.34  0.  0.
   236  2.35  0.  0.
   237  2.36  0.  0.
   238  2.37  0.  0.
   239  2.38  0.  0.
   240  2.39  0.  0.
   241  2.40  0.  0.
   242  2.41  0.  0.
   243  2.42  0.  0.
   244  2.43  0.  0.
   245  2.44  0.  0.
   246  2.45  0.  0.
   247  2.46  0.  0.
   248  2.47  0.  0.
   249  2.48  0.  0.
   250  2.49  0.  0.
   251  2.50  0.  0.
   252  2.51  0.  0.
   253  2.52  0.  0.
   254  2.53  0.  0.
   255  2.54  0.  0.
   256  2.55  0.  0.
   257  2.56  0.  0.
   258  2.57  0.  0.
   259  2.58  0.  0.
   260  2.59  0.  0.
   261  2.60  0.  0.
   262  2.61  0.  0.
   263  2.62  0.  0.
   264  2.63  0.  0.
   265  2.64  0.  0.
   266  2.65  0.  0.
   267  2.66  0.  0.
   268  2.67  0.  0.
   269  2.68  0.  0.
   270  2.69  0.  0.
   271  2.70  0.  0.
   272  2.71  0.  0.
   273  2.72  0.  0.
   274  2.73  0.  0.
   275  2.74  0.  0.
   276  2.75  0.  0.
   277  2.76  0.  0.
   278  2.77  0.  0.
   279  2.78  0.  0.
   280  2.79  0.  0.
   281  2.80  0.  0.
   282  2.81  0.  0.
   283  2.82  0.  0.
   284  2.83  0.  0.
   285  2.84  0.  0.
   286  2.85  0.  0.
   287  2.86  0.  0.
   288  2.87  0.  0.
   289  2.88  0.  0.
   290  2.89  0.  0.
   291  2.90  0.  0.
   292  2.91  0.  0.
   293  2.92  0.  0.
   294  2.93  0.  0.
   295  2.94  0.  0.
   296  2.95  0.  0.
   297  2.96  0.  0.
   298  2.97  0.  0.
   299  2.98  0.  0.
   300  2.99  0.  0.
   301  3.00  0.  0.
   302  3.01  0.  0.
   303  3.02  0.  0.
   304  3.03  0.  0.
   305  3.04  0.  0.
   306  3.05  0.  0.
   307  3.06  0.  0.
   308  3.07  0.  0.
   309  3.08  0.  0.
   310  3.09  0.  0.
   311  3.10  0.  0.
   312  3.11  0.  0.
   313  3.12  0.  0.
   314  3.13  0.  0.
   315  3.14  0.  0.
   316  3.15  0.  0.
   317  3.16  0.  0.
   318  3.17  0.  0.
   319  3.18  0.  0.
   320  3.19  0.  0.
   321  3.20  0.  0.
   322  3.21  0.  0.
   323  3.22  0.  0.
   324  3.23  0.  0.
   325  3.24  0.  0.
   326  3.25  0.  0.
   327  3.26  0.  0.
   328  3.27  0.  0.
   329  3.28  0.  0.
   330  3.29  0.  0.
   331  3.30  0.  0.
   332  3.31  0.  0.
   333  3.32  0.  0.
   334  3.33  0.  0.
   335  3.34  0.  0.
   336  3.35  0.  0.
   337  3.36  0.  0.
   338  3.37  0.  0.
   339  3.38  0.  0.
   340  3.39  0.  0.
   341  3.40  0.  0.
   342  3.41  0.  0.
   343  3.42  0.  0.
   344  3.43  0.  0.
   345  3.44  0.  0.
   346  3.45  0.  0.
   347  3.46  0.  0.
   348  3.47  0.  0.
   349  3.48  0.  0.
   350  3.49  0.  0.
   351  3.50  0.  0.
   352  3.51  0.  0.
   353  3.52  0.  0.
   354  3.53  0.  0.
   355  3.54  0.  0.
   356  3.55  0.  0.
   357  3.56  0.  0.
   358  3.57  0.  0.
   359  3.58  0.  0.
   360  3.59  0.  0.
   361  3.60  0.  0.
   362  3.61  0.  0.
   363  3.62  0.  0.
   364  3.63  0.  0.
   365  3.64  0.  0.
   366  3.65  0.  0.
   367  3.66  0.  0.
   368  3.67  0.  0.
   369  3.68  0.  0.
   370  3.69  0.  0.
   371  3.70  0.  0.
   372  3.71  0.  0.
   373  3.72  0.  0.
   374  3.73  0.  0.
   375  3.74  0.  0.
   376  3.75  0.  0.
   377  3.76  0.  0.
   378  3.77  0.  0.
   379  3.78  0.  0.
   380  3.79  0.  0.
   381  3.80  0.  0.
   382  3.81  0.  0.
   383  3.82  0.  0.
   384  3.83  0.  0.
   385  3.84  0.  0.
   386  3.85  0.  0.
   387  3.86  0.  0.
   388  3.87  0.  0.
   389  3.88  0.  0.
   390  3.89  0.  0.
   391  3.90  0.  0.
   392  3.91  0.  0.
   393  3.92  0.  0.
   394  3.93  0.  0.
   395  3.94  0.  0.
   396  3.95  0.  0.
   397  3.96  0.  0.
   398  3.97  0.  0.
   399  3.98  0.  0.
   400  3.99  0.  0.
   401  4.00  0.  0.
   402  4.01  0.  0.
   403  4.02  0.  0.
   404  4.03  0.  0.
   405  4.04  0.  0.
   406  4.05  0.  0.
   407  4.06  0.  0.
   408  4.07  0.  0.
   409  4.08  0.  0.
   410  4.09  0.  0.
   411  4.10  0.  0.
   412  4.11  0.  0.
   413  4.12  0.  0.
   414  4.13  0.  0.
   415  4.14  0.  0.
   416  4.15  0.  0.
   417  4.16  0.  0.
   418  4.17  0.  0.
   419  4.18  0.  0.
   420  4.19  0.  0.
   421  4.20  0.  0.
   422  4.21  0.  0.
   423  4.22  0.  0.
   424  4.23  0.  0.
   425  4.24  0.  0.
   426  4.25  0.  0.
   427  4.26  0.  0.
   428  4.27  0.  0.
   429  4.28  0.  0.
   430  4.29  0.  0.
   431  4.30  0.  0.
   432  4.31  0.  0.
   433  4.32  0.  0.
   434  4.33  0.  0.
   435  4.34  0.  0.
   436  4.35  0.  0.
   437  4.36  0.  0.
   438  4.37  0.  0.
   439  4.38  0.  0.
   440  4.39  0.  0.
   441  4.40  0.  0.
   442  4.41  0.  0.
   443  4.42  0.  0.
   444  4.43  0.  0.
   445  4.44  0.  0.
   446  4.45  0.  0.
   447  4.46  0.  0.
   448  4.47  0.  0.
   449  4.48  0.  0.
   450  4.49  0.  0.
   451  4.50  0.  0.
   452  4.51  0.  0.
   453  4.52  0.  0.
   454  4.53  0.  0.
   455  4.54  0.  0.
   456  4.55  0.  0.
   457  4.56  0.  0.
   458  4.57  0.  0.
   459  4.58  0.  0.
   460  4.59  0.  0.
   461  4.60  0.  0.
   462  4.61  0.  0.
   463  4.62  0.  0.
   464  4.63  0.  0.
   465  4.64  0.  0.
   466  4.65  0.  0.
   467  4.66  0.  0.
   468  4.67  0.  0.
   469  4.68  0.  0.
   470  4.69  0.  0.
   471  4.70  0.  0.
   472  4.71  0.  0.
   473  4.72  0.  0.
   474  4.73  0.  0.
   475  4.74  0.  0.
   476  4.75  0.  0.
   477  4.76  0.  0.
   478  4.77  0.  0.
   479  4.78  0.  0.
   480  4.79  0.  0.
   481  4.80  0.  0.
   482  4.81  0.  0.
   483  4.82  0.  0.
   484  4.83  0.  0.
   485  4.84  0.  0.
   486  4.85  0.  0.
   487  4.86  0.  0.
   488  4.87  0.  0.
   489  4.88  0.  0.
   490  4.89  0.  0.
   491  4.90  0.  0.
   492  4.91  0.  0.
   493  4.92  0.  0.
   494  4.93  0.  0.
   495  4.94  0.  0.
   496  4.95  0.  0.
   497  4.96  0.  0.
   498  4.97  0.  0.
   499  4.98  0.  0.
   500  4.99  0.  0.
   501  5.00  0.  0.
   502  5.01  0.  0.
   503  5.02  0.  0.
   504  5.03  0.  0.
   505  5.04  0.  0.
   506  5.05  0.  0.
   507  5.06  0.  0.
   508  5.07  0.  0.
   509  5.08  0.  0.
   510  5.09  0.  0.
   511  5.10  0.  0.
   512  5.11  0.  0.
   513  5.12  0.  0.
   514  5.13  0.  0.
   515  5.14  0.  0.
   516  5.15  0.  0.
   517  5.16  0.  0.
   518  5.17  0.  0.
   519  5.18  0.  0.
   520  5.19  0.  0.
   521  5.20  0.  0.
   522  5.21  0.  0.
   523  5.22  0.  0.
   524  5.23  0.  0.
   525  5.24  0.  0.
   526  5.25  0.  0.
   527  5.26  0.  0.
   528  5.27  0.  0.
   529  5.28  0.  0.
   530  5.29  0.  0.
   531  5.30  0.  0.
   532  5.31  0.  0.
   533  5.32  0.  0.
   534  5.33  0.  0.
   535  5.34  0.  0.
   536  5.35  0.  0.
   537  5.36  0.  0.
   538  5.37  0.  0.
   539  5.38  0.  0.
   540  5.39  0.  0.
   541  5.40  0.  0.
   542  5.41  0.  0.
   543  5.42  0.  0.
   544  5.43  0.  0.
   545  5.44  0.  0.
   546  5.45  0.  0.
   547  5.46  0.  0.
   548  5.47  0.  0.
   549  5.48  0.  0.
   550  5.49  0.  0.
   551  5.50  0.  0.
   552  5.51  0.  0.
   553  5.52  0.  0.
   554  5.53  0.  0.
   555  5.54  0.  0.
   556  5.55  0.  0.
   557  5.56  0.  0.
   558  5.57  0.  0.
   559  5.58  0.  0.
   560  5.59  0.  0.
   561  5.60  0.  0.
   562  5.61  0.  0.
   563  5.62  0.  0.
   564  5.63  0.  0.
   565  5.64  0.  0.
   566  5.65  0.  0.
   567  5.66  0.  0.
   568  5.67  0.  0.
   569  5.68  0.  0.
   570  5.69  0.  0.
   571  5.70  0.  0.
   572  5.71  0.  0.
   573  5.72  0.  0.
   574  5.73  0.  0.
   575  5.74  0.  0.
   576  5.75  0.  0.
   577  5.76  0.  0.
   578  5.77  0.  0.
   579  5.78  0.  0.
   580  5.79  0.  0.
   581  5.80  0.  0.
   582  5.81  0.  0.
   583  5.82  0.  0.
   584  5.83  0.  0.
   585  5.84  0.  0.
   586  5.85  0.  0.
   587  5.86  0.  0.
   588  5.87  0.  0.
   589  5.88  0.  0.
   590  5.89  0.  0.
   591  5.90  0.  0.
   592  5.91  0.  0.
   593  5.92  0.  0.
   594  5.93  0.  0.
   595  5.94  0.  0.
   596  5.95  0.  0.
   597  5.96  0.  0.
   598  5.97  0.  0.
   599  5.98  0.  0.
   600  5.99  0.  0.
   1                        -7.5899830732223E-01
     1  0.0000000000000E+00 -7.9494488214316E-09
     2  1.0000000000000E-02 -2.2407922698730E-03
     3  2.0000000000000E-02 -8.9449952355800E-03
     4  3.0000000000000E-02 -2.0058342450168E-02
     5  4.0000000000000E-02 -3.5491235428470E-02
     6  5.0000000000000E-02 -5.5119995715393E-02
     7  6.0000000000000E-02 -7.8788585466551E-02
     8  7.0000000000000E-02 -1.0631076498479E-01
     9  8.0000000000000E-02 -1.3747264770667E-01
    10  9.0000000000000E-02 -1.7203560595526E-01
    11  1.0000000000000E-01 -2.0973947450874E-01
    12  1.1000000000000E-01 -2.5030599380211E-01
    13  1.2000000000000E-01 -2.9344243048242E-01
    14  1.3000000000000E-01 -3.3884531015698E-01
    15  1.4000000000000E-01 -3.8620419556556E-01
    16  1.5000000000000E-01 -4.3520544310160E-01
    17  1.6000000000000E-01 -4.8553587161030E-01
    18  1.7000000000000E-01 -5.3688627968365E-01
    19  1.8000000000000E-01 -5.8895475120658E-01
    20  1.9000000000000E-01 -6.4144969361708E-01
    21  2.0000000000000E-01 -6.9409255913075E-01
    22  2.1000000000000E-01 -7.4662020593442E-01
    23  2.2000000000000E-01 -7.9878686393873E-01
    24  2.3000000000000E-01 -8.5036567794678E-01
    25  2.4000000000000E-01 -9.0114980988074E-01
    26  2.5000000000000E-01 -9.5095309083541E-01
    27  2.6000000000000E-01 -9.9961022301670E-01
    28  2.7000000000000E-01 -1.0469765408874E+00
    29  2.8000000000000E-01 -1.0929273498970E+00
    30  2.9000000000000E-01 -1.1373568698374E+00
    31  3.0000000000000E-01 -1.1801768179628E+00
    32  3.1000000000000E-01 -1.2213146743812E+00
    33  3.2000000000000E-01 -1.2607116787157E+00
    34  3.3000000000000E-01 -1.2983206125076E+00
    35  3.4000000000000E-01 -1.3341034261876E+00
    36  3.5000000000000E-01 -1.3680287725714E+00
    37  3.6000000000000E-01 -1.4000695106883E+00
    38  3.7000000000000E-01 -1.4302002442681E+00
    39  3.8000000000000E-01 -1.4583949583897E+00
    40  3.9000000000000E-01 -1.4846248156361E+00
    41  4.0000000000000E-01 -1.5088561696436E+00
    42  4.1000000000000E-01 -1.5310488492437E+00
    43  4.2000000000000E-01 -1.5511547605543E+00
    44  4.3000000000000E-01 -1.5691168475041E+00
    45  4.4000000000000E-01 -1.5848684434904E+00
    46  4.5000000000000E-01 -1.5983330383364E+00
    47  4.6000000000000E-01 -1.6094244755907E+00
    48  4.7000000000000E-01 -1.6180475856800E+00
    49  4.8000000000000E-01 -1.6240992506760E+00
    50  4.9000000000000E-01 -1.6274698866628E+00
    51  5.0000000000000E-01 -1.6280453200879E+00
    52  5.1000000000000E-01 -1.6257090252439E+00
    53  5.2000000000000E-01 -1.6203446813506E+00
    54  5.3000000000000E-01 -1.6118389997628E+00
    55  5.4000000000000E-01 -1.6000847647897E+00
    56  5.5000000000000E-01 -1.5849840256307E+00
    57  5.6000000000000E-01 -1.5664513721282E+00
    58  5.7000000000000E-01 -1.5444172235415E+00
    59  5.8000000000000E-01 -1.5188310574195E+00
    60  5.9000000000000E-01 -1.4896645049721E+00
    61  6.0000000000000E-01 -1.4569142401315E+00
    62  6.1000000000000E-01 -1.4206045917599E+00
    63  6.2000000000000E-01 -1.3807898121834E+00
    64  6.3000000000000E-01 -1.3375559403447E+00
    65  6.4000000000000E-01 -1.2910222043024E+00
    66  6.5000000000000E-01 -1.2413419154496E+00
    67  6.6000000000000E-01 -1.1887028155448E+00
    68  6.7000000000000E-01 -1.1333268472956E+00
    69  6.8000000000000E-01 -1.0754693296363E+00
    70  6.9000000000000E-01 -1.0154175298003E+00
    71  7.0000000000000E-01 -9.5348863561296E-01
    72  7.1000000000000E-01 -8.9002714290331E-01
    73  7.2000000000000E-01 -8.2540168434014E-01
    74  7.3000000000000E-01 -7.6000133712348E-01
    75  7.4000000000000E-01 -6.9423145759004E-01
    76  7.5000000000000E-01 -6.2850910071604E-01
    77  7.6000000000000E-01 -5.6325809152582E-01
    78  7.7000000000000E-01 -4.9890382336025E-01
    79  7.8000000000000E-01 -4.3586786466154E-01
    80  7.9000000000000E-01 -3.7456246125044E-01
    81  8.0000000000000E-01 -3.1538502489160E-01
    82  8.1000000000000E-01 -2.5871270117298E-01
    83  8.2000000000000E-01 -2.0489711030559E-01
    84  8.3000000000000E-01 -1.5425935334843E-01
    85  8.4000000000000E-01 -1.0708537358147E-01
    86  8.5000000000000E-01 -6.3621758317389E-02
    87  8.6000000000000E-01 -2.4072060422249E-02
    88  8.7000000000000E-01  1.1406288701355E-02
    89  8.8000000000000E-01  4.2704411808539E-02
    90  8.9000000000000E-01  6.9763711446927E-02
    91  9.0000000000000E-01  9.2576846978585E-02
    92  9.1000000000000E-01  1.1118793348824E-01
    93  9.2000000000000E-01  1.2569194578977E-01
    94  9.3000000000000E-01  1.3623332389498E-01
    95  9.4000000000000E-01  1.4300378966802E-01
    96  9.5000000000000E-01  1.4623939771710E-01
    97  9.6000000000000E-01  1.4621685663630E-01
    98  9.7000000000000E-01  1.4324916926768E-01
    99  9.8000000000000E-01  1.3768065247915E-01
   100  9.9000000000000E-01  1.2988140783618E-01
   101  1.0000000000000E+00  1.2024132427852E-01
   102  1.0100000000000E+00  1.0916370232044E-01
   103  1.0200000000000E+00  9.7058596218062E-02
   104  1.0300000000000E+00  8.4335975857746E-02
   105  1.0400000000000E+00  7.1398813708495E-02
   106  1.0500000000000E+00  5.8636203985278E-02
   107  1.0600000000000E+00  4.6416630694504E-02
   108  1.0700000000000E+00  3.5081408708040E-02
   109  1.0800000000000E+00  2.4943689077588E-02
   110  1.0900000000000E+00  1.6285338255063E-02
   111  1.1000000000000E+00  9.3201382915399E-03
   112  1.1100000000000E+00  4.2148724188444E-03
   113  1.1200000000000E+00  1.0805831692578E-03
   114  1.1300000000000E+00  5.9294123665971E-06
   115  1.1400000000000E+00  6.9767382993655E-06
   116  1.1500000000000E+00 -3.8669535900679E-07
   117  1.16  0.
   118  1.17  0.
   119  1.18  0.
   120  1.19  0.
   121  1.20  0.
   122  1.21  0.
   123  1.22  0.
   124  1.23  0.
   125  1.24  0.
   126  1.25  0.
   127  1.26  0.
   128  1.27  0.
   129  1.28  0.
   130  1.29  0.
   131  1.30  0.
   132  1.31  0.
   133  1.32  0.
   134  1.33  0.
   135  1.34  0.
   136  1.35  0.
   137  1.36  0.
   138  1.37  0.
   139  1.38  0.
   140  1.39  0.
   141  1.40  0.
   142  1.41  0.
   143  1.42  0.
   144  1.43  0.
   145  1.44  0.
   146  1.45  0.
   147  1.46  0.
   148  1.47  0.
   149  1.48  0.
   150  1.49  0.
   151  1.50  0.
   152  1.51  0.
   153  1.52  0.
   154  1.53  0.
   155  1.54  0.
   156  1.55  0.
   157  1.56  0.
   158  1.57  0.
   159  1.58  0.
   160  1.59  0.
   161  1.60  0.
   162  1.61  0.
   163  1.62  0.
   164  1.63  0.
   165  1.64  0.
   166  1.65  0.
   167  1.66  0.
   168  1.67  0.
   169  1.68  0.
   170  1.69  0.
   171  1.70  0.
   172  1.71  0.
   173  1.72  0.
   174  1.73  0.
   175  1.74  0.
   176  1.75  0.
   177  1.76  0.
   178  1.77  0.
   179  1.78  0.
   180  1.79  0.
   181  1.80  0.
   182  1.81  0.
   183  1.82  0.
   184  1.83  0.
   185  1.84  0.
   186  1.85  0.
   187  1.86  0.
   188  1.87  0.
   189  1.88  0.
   190  1.89  0.
   191  1.90  0.
   192  1.91  0.
   193  1.92  0.
   194  1.93  0.
   195  1.94  0.
   196  1.95  0.
   197  1.96  0.
   198  1.97  0.
   199  1.98  0.
   200  1.99  0.
   201  2.00  0.
   202  2.01  0.
   203  2.02  0.
   204  2.03  0.
   205  2.04  0.
   206  2.05  0.
   207  2.06  0.
   208  2.07  0.
   209  2.08  0.
   210  2.09  0.
   211  2.10  0.
   212  2.11  0.
   213  2.12  0.
   214  2.13  0.
   215  2.14  0.
   216  2.15  0.
   217  2.16  0.
   218  2.17  0.
   219  2.18  0.
   220  2.19  0.
   221  2.20  0.
   222  2.21  0.
   223  2.22  0.
   224  2.23  0.
   225  2.24  0.
   226  2.25  0.
   227  2.26  0.
   228  2.27  0.
   229  2.28  0.
   230  2.29  0.
   231  2.30  0.
   232  2.31  0.
   233  2.32  0.
   234  2.33  0.
   235  2.34  0.
   236  2.35  0.
   237  2.36  0.
   238  2.37  0.
   239  2.38  0.
   240  2.39  0.
   241  2.40  0.
   242  2.41  0.
   243  2.42  0.
   244  2.43  0.
   245  2.44  0.
   246  2.45  0.
   247  2.46  0.
   248  2.47  0.
   249  2.48  0.
   250  2.49  0.
   251  2.50  0.
   252  2.51  0.
   253  2.52  0.
   254  2.53  0.
   255  2.54  0.
   256  2.55  0.
   257  2.56  0.
   258  2.57  0.
   259  2.58  0.
   260  2.59  0.
   261  2.60  0.
   262  2.61  0.
   263  2.62  0.
   264  2.63  0.
   265  2.64  0.
   266  2.65  0.
   267  2.66  0.
   268  2.67  0.
   269  2.68  0.
   270  2.69  0.
   271  2.70  0.
   272  2.71  0.
   273  2.72  0.
   274  2.73  0.
   275  2.74  0.
   276  2.75  0.
   277  2.76  0.
   278  2.77  0.
   279  2.78  0.
   280  2.79  0.
   281  2.80  0.
   282  2.81  0.
   283  2.82  0.
   284  2.83  0.
   285  2.84  0.
   286  2.85  0.
   287  2.86  0.
   288  2.87  0.
   289  2.88  0.
   290  2.89  0.
   291  2.90  0.
   292  2.91  0.
   293  2.92  0.
   294  2.93  0.
   295  2.94  0.
   296  2.95  0.
   297  2.96  0.
   298  2.97  0.
   299  2.98  0.
   300  2.99  0.
   301  3.00  0.
   302  3.01  0.
   303  3.02  0.
   304  3.03  0.
   305  3.04  0.
   306  3.05  0.
   307  3.06  0.
   308  3.07  0.
   309  3.08  0.
   310  3.09  0.
   311  3.10  0.
   312  3.11  0.
   313  3.12  0.
   314  3.13  0.
   315  3.14  0.
   316  3.15  0.
   317  3.16  0.
   318  3.17  0.
   319  3.18  0.
   320  3.19  0.
   321  3.20  0.
   322  3.21  0.
   323  3.22  0.
   324  3.23  0.
   325  3.24  0.
   326  3.25  0.
   327  3.26  0.
   328  3.27  0.
   329  3.28  0.
   330  3.29  0.
   331  3.30  0.
   332  3.31  0.
   333  3.32  0.
   334  3.33  0.
   335  3.34  0.
   336  3.35  0.
   337  3.36  0.
   338  3.37  0.
   339  3.38  0.
   340  3.39  0.
   341  3.40  0.
   342  3.41  0.
   343  3.42  0.
   344  3.43  0.
   345  3.44  0.
   346  3.45  0.
   347  3.46  0.
   348  3.47  0.
   349  3.48  0.
   350  3.49  0.
   351  3.50  0.
   352  3.51  0.
   353  3.52  0.
   354  3.53  0.
   355  3.54  0.
   356  3.55  0.
   357  3.56  0.
   358  3.57  0.
   359  3.58  0.
   360  3.59  0.
   361  3.60  0.
   362  3.61  0.
   363  3.62  0.
   364  3.63  0.
   365  3.64  0.
   366  3.65  0.
   367  3.66  0.
   368  3.67  0.
   369  3.68  0.
   370  3.69  0.
   371  3.70  0.
   372  3.71  0.
   373  3.72  0.
   374  3.73  0.
   375  3.74  0.
   376  3.75  0.
   377  3.76  0.
   378  3.77  0.
   379  3.78  0.
   380  3.79  0.
   381  3.80  0.
   382  3.81  0.
   383  3.82  0.
   384  3.83  0.
   385  3.84  0.
   386  3.85  0.
   387  3.86  0.
   388  3.87  0.
   389  3.88  0.
   390  3.89  0.
   391  3.90  0.
   392  3.91  0.
   393  3.92  0.
   394  3.93  0.
   395  3.94  0.
   396  3.95  0.
   397  3.96  0.
   398  3.97  0.
   399  3.98  0.
   400  3.99  0.
   401  4.00  0.
   402  4.01  0.
   403  4.02  0.
   404  4.03  0.
   405  4.04  0.
   406  4.05  0.
   407  4.06  0.
   408  4.07  0.
   409  4.08  0.
   410  4.09  0.