Li    ONCVPSP-4.0.1  r_core=   1.62803   1.60867
      3.0000      3.0000      220318    zatom,zion,pspd
     8      11   1     4   400     0    pspcod,pspxc,lmax,lloc,mmax,r2well
  3.99000000  0.00000000  0.00000000    rchrg fchrg qchrg
     2     2     0     0     0    nproj
     1     1           extension_switch
   0                        -2.4068659647615E+00 -1.2256498601003E+00
     1  0.0000000000000E+00  1.6000587521603E-09 -2.4788602837056E-09
     2  1.0000000000000E-02  2.4540654532667E-02 -2.1050703053775E-02
     3  2.0000000000000E-02  4.9283701815719E-02 -4.2132504622998E-02
     4  3.0000000000000E-02  7.4428688773786E-02 -6.3274122119434E-02
     5  4.0000000000000E-02  1.0016950448299E-01 -8.4499553424910E-02
     6  5.0000000000000E-02  1.2669163534175E-01 -1.0582582317865E-01
     7  6.0000000000000E-02  1.5416952000573E-01 -1.2726085454060E-01
     8  7.0000000000000E-02  1.8276403544031E-01 -1.4880150530377E-01
     9  8.0000000000000E-02  2.1262014384354E-01 -1.7043180474997E-01
    10  9.0000000000000E-02  2.4386472822965E-01 -1.9212142460810E-01
    11  1.0000000000000E-01  2.7660464216028E-01 -2.1382441392451E-01
    12  1.1000000000000E-01  3.1092499649739E-01 -2.3547822363987E-01
    13  1.2000000000000E-01  3.4688770315939E-01 -2.5700304224037E-01
    14  1.3000000000000E-01  3.8453029272661E-01 -2.7830145907670E-01
    15  1.4000000000000E-01  4.2386501940256E-01 -2.9925846688656E-01
    16  1.5000000000000E-01  4.6487826333574E-01 -3.1974180978890E-01
    17  1.6000000000000E-01  5.0753023668582E-01 -3.3960267761403E-01
    18  1.7000000000000E-01  5.5175499612475E-01 -3.5867674197216E-01
    19  1.8000000000000E-01  5.9746076074430E-01 -3.7678552402279E-01
    20  1.9000000000000E-01  6.4453053064334E-01 -3.9373807856844E-01
    21  2.0000000000000E-01  6.9282299784001E-01 -4.0933297393927E-01
    22  2.1000000000000E-01  7.4217373764113E-01 -4.2336054223701E-01
    23  2.2000000000000E-01  7.9239666525036E-01 -4.3560536994358E-01
    24  2.3000000000000E-01  8.4328573925147E-01 -4.4584899474311E-01
    25  2.4000000000000E-01  8.9461689070463E-01 -4.5387277072237E-01
    26  2.5000000000000E-01  9.4615015398031E-01 -4.5946086096403E-01
    27  2.6000000000000E-01  9.9763197316193E-01 -4.6240331398372E-01
    28  2.7000000000000E-01  1.0487976559049E+00 -4.6249917853010E-01
    29  2.8000000000000E-01  1.0993739450714E+00 -4.5955961000391E-01
    30  2.9000000000000E-01  1.1490816772893E+00 -4.5341092118330E-01
    31  3.0000000000000E-01  1.1976384968208E+00 -4.4389753008524E-01
    32  3.1000000000000E-01  1.2447615927882E+00 -4.3088475865139E-01
    33  3.2000000000000E-01  1.2901704278825E+00 -4.1426143751528E-01
    34  3.3000000000000E-01  1.3335894271851E+00 -3.9394227436901E-01
    35  3.4000000000000E-01  1.3747505966404E+00 -3.6986994637259E-01
    36  3.5000000000000E-01  1.4133960420258E+00 -3.4201688059721E-01
    37  3.6000000000000E-01  1.4492803609383E+00 -3.1038669061462E-01
    38  3.7000000000000E-01  1.4821728823421E+00 -2.7501524197690E-01
    39  3.8000000000000E-01  1.5118597305516E+00 -2.3597132440274E-01
    40  3.9000000000000E-01  1.5381456931285E+00 -1.9335691392018E-01
    41  4.0000000000000E-01  1.5608558750098E+00 -1.4730701392317E-01
    42  4.1000000000000E-01  1.5798371242014E+00 -9.7989069989229E-02
    43  4.2000000000000E-01  1.5949592175237E+00 -4.5601959279019E-02
    44  4.3000000000000E-01  1.6061157981373E+00  9.6254387021472E-03
    45  4.4000000000000E-01  1.6132250598379E+00  6.7436077360217E-02
    46  4.5000000000000E-01  1.6162301763565E+00  1.2754696604128E-01
    47  4.6000000000000E-01  1.6150994770638E+00  1.8965175728266E-01
    48  4.7000000000000E-01  1.6098263735189E+00  2.5342366983982E-01
    49  4.8000000000000E-01  1.6004290441587E+00  3.1851871464716E-01
    50  4.9000000000000E-01  1.5869498870629E+00  3.8457918705592E-01
    51  5.0000000000000E-01  1.5694547530992E+00  4.5123738552953E-01
    52  5.1000000000000E-01  1.5480319738193E+00  5.1811951452771E-01
    53  5.2000000000000E-01  1.5227912002108E+00  5.8484972762312E-01
    54  5.3000000000000E-01  1.4938620697814E+00  6.5105426600438E-01
    55  5.4000000000000E-01  1.4613927204471E+00  7.1636564744871E-01
    56  5.5000000000000E-01  1.4255481703000E+00  7.8042686160212E-01
    57  5.6000000000000E-01  1.3865085825445E+00  8.4289552897668E-01
    58  5.7000000000000E-01  1.3444674347088E+00  9.0344798344013E-01
    59  5.8000000000000E-01  1.2996296106838E+00  9.6178324109285E-01
    60  5.9000000000000E-01  1.2522094332194E+00  1.0176268222486E+00
    61  6.0000000000000E-01  1.2024286532590E+00  1.0707343976920E+00
    62  6.1000000000000E-01  1.1505144109297E+00  1.1208952353959E+00
    63  6.2000000000000E-01  1.0966971811892E+00  1.1679354293598E+00
    64  6.3000000000000E-01  1.0412087150775E+00  1.2117208980672E+00
    65  6.4000000000000E-01  9.8427998530643E-01  1.2521601461604E+00
    66  6.5000000000000E-01  9.2613914218795E-01  1.2892067874670E+00
    67  6.6000000000000E-01  8.6700937980144E-01  1.3228613469096E+00
    68  6.7000000000000E-01  8.0710500667011E-01  1.3531630751076E+00
    69  6.8000000000000E-01  7.4662763353126E-01  1.3801747450005E+00
    70  6.9000000000000E-01  6.8576603487894E-01  1.4039785227372E+00
    71  7.0000000000000E-01  6.2469672969897E-01  1.4246737649959E+00
    72  7.1000000000000E-01  5.6358469917403E-01  1.4423745910429E+00
    73  7.2000000000000E-01  5.0258422164189E-01  1.4572072716913E+00
    74  7.3000000000000E-01  4.4183980340646E-01  1.4693074802538E+00
    75  7.4000000000000E-01  3.8148718268560E-01  1.4788174529181E+00
    76  7.5000000000000E-01  3.2165438304852E-01  1.4858831075291E+00
    77  7.6000000000000E-01  2.6246279216947E-01  1.4906511706434E+00
    78  7.7000000000000E-01  2.0402824158542E-01  1.4932663624665E+00
    79  7.8000000000000E-01  1.4646206344869E-01  1.4938686886986E+00
    80  7.9000000000000E-01  8.9872100943125E-02  1.4925908864365E+00
    81  8.0000000000000E-01  3.4363650126514E-02  1.4895560689092E+00
    82  8.1000000000000E-01 -1.9959687572442E-02  1.4848756105902E+00
    83  8.2000000000000E-01 -7.2995261151871E-02  1.4786473103166E+00
    84  8.3000000000000E-01 -1.2464075092787E-01  1.4709538654508E+00
    85  8.4000000000000E-01 -1.7479368887731E-01  1.4618616850107E+00
    86  8.5000000000000E-01 -2.2335113009505E-01  1.4514200640207E+00
    87  8.6000000000000E-01 -2.7020948412429E-01  1.4396607352872E+00
    88  8.7000000000000E-01 -3.1526451185692E-01  1.4265978084717E+00
    89  8.8000000000000E-01 -3.5841149051866E-01  1.4122280996972E+00
    90  8.9000000000000E-01 -3.9954554602566E-01  1.3965318483210E+00
    91  9.0000000000000E-01 -4.3856214874997E-01  1.3794738107528E+00
    92  9.1000000000000E-01 -4.7535776554564E-01  1.3610047147006E+00
    93  9.2000000000000E-01 -5.0983065778805E-01  1.3410630508238E+00
    94  9.3000000000000E-01 -5.4188181224556E-01  1.3195771727921E+00
    95  9.4000000000000E-01 -5.7141598886692E-01  1.2964676711490E+00
    96  9.5000000000000E-01 -5.9834286707148E-01  1.2716499812509E+00
    97  9.6000000000000E-01 -6.2257826995286E-01  1.2450371811771E+00
    98  9.7000000000000E-01 -6.4404544392145E-01  1.2165429316036E+00
    99  9.8000000000000E-01 -6.6267636983565E-01  1.1860845067171E+00
   100  9.9000000000000E-01 -6.7841308053490E-01  1.1535858628775E+00
   101  1.0000000000000E+00 -6.9120895902691E-01  1.1189806905089E+00
   102  1.0100000000000E+00 -7.0102999127914E-01  1.0822153940408E+00
   103  1.0200000000000E+00 -7.0785594776806E-01  1.0432519452544E+00
   104  1.0300000000000E+00 -7.1168146851121E-01  1.0020705565350E+00
   105  1.0400000000000E+00 -7.1251702738928E-01  9.5867212287232E-01
   106  1.0500000000000E+00 -7.1038975297135E-01  9.1308038428157E-01
   107  1.0600000000000E+00 -7.0534408497049E-01  8.6534376437849E-01
   108  1.0700000000000E+00 -6.9744224763468E-01  8.1553684525598E-01
   109  1.0800000000000E+00 -6.8676452399927E-01  7.6376144429199E-01
   110  1.0900000000000E+00 -6.7340931776344E-01  7.1014726430606E-01
   111  1.1000000000000E+00 -6.5749299273203E-01  6.5485209508507E-01
   112  1.1100000000000E+00 -6.3914948307528E-01  5.9806155105535E-01
   113  1.1200000000000E+00 -6.1852967121625E-01  5.3998833725705E-01
   114  1.1300000000000E+00 -5.9580053375919E-01  4.8087104314429E-01
   115  1.1400000000000E+00 -5.7114405954142E-01  4.2097247128725E-01
   116  1.1500000000000E+00 -5.4475594761826E-01  3.6057751574649E-01
   117  1.1600000000000E+00 -5.1684409652785E-01  2.9999061209949E-01
   118  1.1700000000000E+00 -4.8762689977420E-01  2.3953278855741E-01
   119  1.1800000000000E+00 -4.5733136569931E-01  1.7953835418140E-01
   120  1.1900000000000E+00 -4.2619108309461E-01  1.2035126681157E-01
   121  1.2000000000000E+00 -3.9444405667473E-01  6.2321228986679E-02
   122  1.2100000000000E+00 -3.6233043904604E-01  5.7995653105532E-03
   123  1.2200000000000E+00 -3.3009018797318E-01 -4.8865060780049E-02
   124  1.2300000000000E+00 -2.9796067941942E-01 -1.0133102947645E-01
   125  1.2400000000000E+00 -2.6617430822496E-01 -1.5126818198552E-01
   126  1.2500000000000E+00 -2.3495610905287E-01 -1.9836220699332E-01
   127  1.2600000000000E+00 -2.0452143069023E-01 -2.4231892932451E-01
   128  1.2700000000000E+00 -1.7507369663876E-01 -2.8286843422292E-01
   129  1.2800000000000E+00 -1.4680228434684E-01 -3.1976896182020E-01
   130  1.2900000000000E+00 -1.1988055439935E-01 -3.5281050841249E-01
   131  1.3000000000000E+00 -9.4464059370238E-02 -3.8181807445364E-01
   132  1.3100000000000E+00 -7.0688960104181E-02 -4.0665450305812E-01
   133  1.3200000000000E+00 -4.8670674711022E-02 -4.2722285786980E-01
   134  1.3300000000000E+00 -2.8502782722632E-02 -4.4346829489832E-01
   135  1.3400000000000E+00 -1.0256203643577E-02 -4.5537938947081E-01
   136  1.3500000000000E+00  6.0213344278504E-03 -4.6298888668976E-01
   137  1.3600000000000E+00  2.0305524320010E-02 -4.6637385172354E-01
   138  1.3700000000000E+00  3.2595399718061E-02 -4.6565520451405E-01
   139  1.3800000000000E+00  4.2912942174192E-02 -4.6099663251394E-01
   140  1.3900000000000E+00  5.1302376274751E-02 -4.5260288404866E-01
   141  1.4000000000000E+00  5.7829158708771E-02 -4.4071745447849E-01
   142  1.4100000000000E+00  6.2578671642415E-02 -4.2561968688220E-01
   143  1.4200000000000E+00  6.5654635507269E-02 -4.0762131863690E-01
   144  1.4300000000000E+00  6.7177260985913E-02 -3.8706251486622E-01
   145  1.4400000000000E+00  6.7281164626088E-02 -3.6430743929906E-01
   146  1.4500000000000E+00  6.6113076947338E-02 -3.3973942216587E-01
   147  1.4600000000000E+00  6.3829376293944E-02 -3.1375579380930E-01
   148  1.4700000000000E+00  6.0593485720275E-02 -2.8676246094516E-01
   149  1.4800000000000E+00  5.6573174014861E-02 -2.5916831034322E-01
   150  1.4900000000000E+00  5.1937805374276E-02 -2.3137953163711E-01
   151  1.5000000000000E+00  4.6855585242477E-02 -2.0379395706938E-01
   152  1.5100000000000E+00  4.1490852199211E-02 -1.7679552069234E-01
   153  1.5200000000000E+00  3.6001467063743E-02 -1.5074894173170E-01
   154  1.5300000000000E+00  3.0536357669817E-02 -1.2599475467198E-01
   155  1.5400000000000E+00  2.5233245610717E-02 -1.0284472620230E-01
   156  1.5500000000000E+00  2.0216798039468E-02 -8.1578252234971E-02
   157  1.5600000000000E+00  1.5597644040439E-02 -6.2440831578880E-02
   158  1.5700000000000E+00  1.1469052276007E-02 -4.5636409900997E-02
   159  1.5800000000000E+00  7.9066564466203E-03 -3.1327324864160E-02
   160  1.5900000000000E+00  4.9685268799675E-03 -1.9634941731652E-02
   161  1.6000000000000E+00  2.6952421591882E-03 -1.0640352950343E-02
   162  1.6100000000000E+00  1.1077102022059E-03 -4.3751403308720E-03
   163  1.6200000000000E+00  2.2360929060965E-04 -8.8518148207057E-04
   164  1.6300000000000E+00 -1.2830361351277E-05  5.0410563499649E-05
   165  1.6400000000000E+00  3.5775302998267E-06 -1.4119421644087E-05
   166  1.65 -0.  0.
   167  1.66  0. -0.
   168  1.67  0.  0.
   169  1.68  0.  0.
   170  1.69  0.  0.
   171  1.70  0.  0.
   172  1.71  0.  0.
   173  1.72  0.  0.
   174  1.73  0.  0.
   175  1.74  0.  0.
   176  1.75  0.  0.
   177  1.76  0.  0.
   178  1.77  0.  0.
   179  1.78  0.  0.
   180  1.79  0.  0.
   181  1.80  0.  0.
   182  1.81  0.  0.
   183  1.82  0.  0.
   184  1.83  0.  0.
   185  1.84  0.  0.
   186  1.85  0.  0.
   187  1.86  0.  0.
   188  1.87  0.  0.
   189  1.88  0.  0.
   190  1.89  0.  0.
   191  1.90  0.  0.
   192  1.91  0.  0.
   193  1.92  0.  0.
   194  1.93  0.  0.
   195  1.94  0.  0.
   196  1.95  0.  0.
   197  1.96  0.  0.
   198  1.97  0.  0.
   199  1.98  0.  0.
   200  1.99  0.  0.
   201  2.00  0.  0.
   202  2.01  0.  0.
   203  2.02  0.  0.
   204  2.03  0.  0.
   205  2.04  0.  0.
   206  2.05  0.  0.
   207  2.06  0.  0.
   208  2.07  0.  0.
   209  2.08  0.  0.
   210  2.09  0.  0.
   211  2.10  0.  0.
   212  2.11  0.  0.
   213  2.12  0.  0.
   214  2.13  0.  0.
   215  2.14  0.  0.
   216  2.15  0.  0.
   217  2.16  0.  0.
   218  2.17  0.  0.
   219  2.18  0.  0.
   220  2.19  0.  0.
   221  2.20  0.  0.
   222  2.21  0.  0.
   223  2.22  0.  0.
   224  2.23  0.  0.
   225  2.24  0.  0.
   226  2.25  0.  0.
   227  2.26  0.  0.
   228  2.27  0.  0.
   229  2.28  0.  0.
   230  2.29  0.  0.
   231  2.30  0.  0.
   232  2.31  0.  0.
   233  2.32  0.  0.
   234  2.33  0.  0.
   235  2.34  0.  0.
   236  2.35  0.  0.
   237  2.36  0.  0.
   238  2.37  0.  0.
   239  2.38  0.  0.
   240  2.39  0.  0.
   241  2.40  0.  0.
   242  2.41  0.  0.
   243  2.42  0.  0.
   244  2.43  0.  0.
   245  2.44  0.  0.
   246  2.45  0.  0.
   247  2.46  0.  0.
   248  2.47  0.  0.
   249  2.48  0.  0.
   250  2.49  0.  0.
   251  2.50  0.  0.
   252  2.51  0.  0.
   253  2.52  0.  0.
   254  2.53  0.  0.
   255  2.54  0.  0.
   256  2.55  0.  0.
   257  2.56  0.  0.
   258  2.57  0.  0.
   259  2.58  0.  0.
   260  2.59  0.  0.
   261  2.60  0.  0.
   262  2.61  0.  0.
   263  2.62  0.  0.
   264  2.63  0.  0.
   265  2.64  0.  0.
   266  2.65  0.  0.
   267  2.66  0.  0.
   268  2.67  0.  0.
   269  2.68  0.  0.
   270  2.69  0.  0.
   271  2.70  0.  0.
   272  2.71  0.  0.
   273  2.72  0.  0.
   274  2.73  0.  0.
   275  2.74  0.  0.
   276  2.75  0.  0.
   277  2.76  0.  0.
   278  2.77  0.  0.
   279  2.78  0.  0.
   280  2.79  0.  0.
   281  2.80  0.  0.
   282  2.81  0.  0.
   283  2.82  0.  0.
   284  2.83  0.  0.
   285  2.84  0.  0.
   286  2.85  0.  0.
   287  2.86  0.  0.
   288  2.87  0.  0.
   289  2.88  0.  0.
   290  2.89  0.  0.
   291  2.90  0.  0.
   292  2.91  0.  0.
   293  2.92  0.  0.
   294  2.93  0.  0.
   295  2.94  0.  0.
   296  2.95  0.  0.
   297  2.96  0.  0.
   298  2.97  0.  0.
   299  2.98  0.  0.
   300  2.99  0.  0.
   301  3.00  0.  0.
   302  3.01  0.  0.
   303  3.02  0.  0.
   304  3.03  0.  0.
   305  3.04  0.  0.
   306  3.05  0.  0.
   307  3.06  0.  0.
   308  3.07  0.  0.
   309  3.08  0.  0.
   310  3.09  0.  0.
   311  3.10  0.  0.
   312  3.11  0.  0.
   313  3.12  0.  0.
   314  3.13  0.  0.
   315  3.14  0.  0.
   316  3.15  0.  0.
   317  3.16  0.  0.
   318  3.17  0.  0.
   319  3.18  0.  0.
   320  3.19  0.  0.
   321  3.20  0.  0.
   322  3.21  0.  0.
   323  3.22  0.  0.
   324  3.23  0.  0.
   325  3.24  0.  0.
   326  3.25  0.  0.
   327  3.26  0.  0.
   328  3.27  0.  0.
   329  3.28  0.  0.
   330  3.29  0.  0.
   331  3.30  0.  0.
   332  3.31  0.  0.
   333  3.32  0.  0.
   334  3.33  0.  0.
   335  3.34  0.  0.
   336  3.35  0.  0.
   337  3.36  0.  0.
   338  3.37  0.  0.
   339  3.38  0.  0.
   340  3.39  0.  0.
   341  3.40  0.  0.
   342  3.41  0.  0.
   343  3.42  0.  0.
   344  3.43  0.  0.
   345  3.44  0.  0.
   346  3.45  0.  0.
   347  3.46  0.  0.
   348  3.47  0.  0.
   349  3.48  0.  0.
   350  3.49  0.  0.
   351  3.50  0.  0.
   352  3.51  0.  0.
   353  3.52  0.  0.
   354  3.53  0.  0.
   355  3.54  0.  0.
   356  3.55  0.  0.
   357  3.56  0.  0.
   358  3.57  0.  0.
   359  3.58  0.  0.
   360  3.59  0.  0.
   361  3.60  0.  0.
   362  3.61  0.  0.
   363  3.62  0.  0.
   364  3.63  0.  0.
   365  3.64  0.  0.
   366  3.65  0.  0.
   367  3.66  0.  0.
   368  3.67  0.  0.
   369  3.68  0.  0.
   370  3.69  0.  0.
   371  3.70  0.  0.
   372  3.71  0.  0.
   373  3.72  0.  0.
   374  3.73  0.  0.
   375  3.74  0.  0.
   376  3.75  0.  0.
   377  3.76  0.  0.
   378  3.77  0.  0.
   379  3.78  0.  0.
   380  3.79  0.  0.
   381  3.80  0.  0.
   382  3.81  0.  0.
   383  3.82  0.  0.
   384  3.83  0.  0.
   385  3.84  0.  0.
   386  3.85  0.  0.
   387  3.86  0.  0.
   388  3.87  0.  0.
   389  3.88  0.  0.
   390  3.89  0.  0.
   391  3.90  0.  0.
   392  3.91  0.  0.
   393  3.92  0.  0.
   394  3.93  0.  0.
   395  3.94  0.  0.
   396  3.95  0.  0.
   397  3.96  0.  0.
   398  3.97  0.  0.
   399  3.98  0.  0.
   400  3.99  0.  0.
   1                        -3.0749465253641E+00 -1.1297151151061E+00
     1  0.0000000000000E+00  7.0770139470877E-09  1.6662490456842E-08
     2  1.0000000000000E-02  3.3431270540363E-03  6.2019912508051E-04
     3  2.0000000000000E-02  1.3341185453330E-02  2.4556159303495E-03
     4  3.0000000000000E-02  2.9900540770263E-02  5.4312549957091E-03
     5  4.0000000000000E-02  5.2866244597778E-02  9.4239354625213E-03
     6  5.0000000000000E-02  8.2023684413648E-02  1.4264975337581E-02
     7  6.0000000000000E-02  1.1710086636486E-01  1.9743884115162E-02
     8  7.0000000000000E-02  1.5777130432486E-01  2.5612999503762E-02
     9  8.0000000000000E-02  2.0365748149947E-01  3.1592987381660E-02
    10  9.0000000000000E-02  2.5433484417507E-01  3.7379108675464E-02
    11  1.0000000000000E-01  3.0933628099593E-01  4.2648142900613E-02
    12  1.1000000000000E-01  3.6815703550035E-01  4.7065845845046E-02
    13  1.2000000000000E-01  4.3025999460788E-01  5.0294808516203E-02
    14  1.3000000000000E-01  4.9508129139498E-01  5.2002576181999E-02
    15  1.4000000000000E-01  5.6203615687991E-01  5.1869880267502E-02
    16  1.5000000000000E-01  6.3052495270721E-01  4.9598832133223E-02
    17  1.6000000000000E-01  6.9993931461755E-01  4.4920926447912E-02
    18  1.7000000000000E-01  7.6966833543919E-01  3.7604703024348E-02
    19  1.8000000000000E-01  8.3910471606276E-01  2.7462919626538E-02
    20  1.9000000000000E-01  9.0765081347191E-01  1.4359094361022E-02
    21  2.0000000000000E-01  9.7472451639592E-01 -1.7867152292359E-03
    22  2.1000000000000E-01  1.0397648815150E+00 -2.0993018435005E-02
    23  2.2000000000000E-01  1.1022374663603E+00 -4.3212992094852E-02
    24  2.3000000000000E-01  1.1616392990740E+00 -6.8331669838365E-02
    25  2.4000000000000E-01  1.2175034299817E+00 -9.6164297148542E-02
    26  2.5000000000000E-01  1.2694030154254E+00 -1.2645591116971E-01
    27  2.6000000000000E-01  1.3169548904376E+00 -1.5888218452061E-01
    28  2.7000000000000E-01  1.3598225935314E+00 -1.9305155169280E-01
    29  2.8000000000000E-01  1.3977188140469E+00 -2.2850861523579E-01
    30  2.9000000000000E-01  1.4304072400347E+00 -2.6473880718300E-01
    31  3.0000000000000E-01  1.4577037924730E+00 -3.0117425940148E-01
    32  3.1000000000000E-01  1.4794772395877E+00 -3.3720081510859E-01
    33  3.2000000000000E-01  1.4956491930708E+00 -3.7216609304420E-01
    34  3.3000000000000E-01  1.5061934959450E+00 -4.0538849607427E-01
    35  3.4000000000000E-01  1.5111350195867E+00 -4.3616703767606E-01
    36  3.5000000000000E-01  1.5105478948780E+00 -4.6379184314742E-01
    37  3.6000000000000E-01  1.5045532094886E+00 -4.8755516780651E-01
    38  3.7000000000000E-01  1.4933162097856E+00 -5.0676276218927E-01
    39  3.8000000000000E-01  1.4770430517181E+00 -5.2074540456423E-01
    40  3.9000000000000E-01  1.4559771501326E+00 -5.2887041418960E-01
    41  4.0000000000000E-01  1.4303951802492E+00 -5.3055295481122E-01
    42  4.1000000000000E-01  1.4006027883904E+00 -5.2526693707795E-01
    43  4.2000000000000E-01  1.3669300714447E+00 -5.1255533091659E-01
    44  4.3000000000000E-01  1.3297268859010E+00 -4.9203970449733E-01
    45  4.4000000000000E-01  1.2893580475890E+00 -4.6342881521314E-01
    46  4.5000000000000E-01  1.2461984824707E+00 -4.2652609002194E-01
    47  4.6000000000000E-01  1.2006283869581E+00 -3.8123584743057E-01
    48  4.7000000000000E-01  1.1530284532897E+00 -3.2756813115933E-01
    49  4.8000000000000E-01  1.1037752115255E+00 -2.6564204588293E-01
    50  4.9000000000000E-01  1.0532365347624E+00 -1.9568750812278E-01
    51  5.0000000000000E-01  1.0017673482990E+00 -1.1804535004637E-01
    52  5.1000000000000E-01  9.4970557678326E-01 -3.3165740249943E-02
    53  5.2000000000000E-01  8.9736835594915E-01  5.8395086829192E-02
    54  5.3000000000000E-01  8.4504852751214E-01  1.5597977282805E-01
    55  5.4000000000000E-01  7.9301142727556E-01  2.5883639987372E-01
    56  5.5000000000000E-01  7.4149196763342E-01  3.6612659995319E-01
    57  5.6000000000000E-01  6.9069200659259E-01  4.7693510349470E-01
    58  5.7000000000000E-01  6.4077798632635E-01  5.9028059419741E-01
    59  5.8000000000000E-01  5.9187881526933E-01  7.0512771134406E-01
    60  5.9000000000000E-01  5.4408395902553E-01  8.2040001686844E-01
    61  6.0000000000000E-01  4.9744169704009E-01  9.3499372271966E-01
    62  6.1000000000000E-01  4.5195749422936E-01  1.0477919549269E+00
    63  6.2000000000000E-01  4.0759242971318E-01  1.1576793145374E+00
    64  6.3000000000000E-01  3.6426161857727E-01  1.2635564825425E+00
    65  6.4000000000000E-01  3.2183255732781E-01  1.3643546062379E+00
    66  6.5000000000000E-01  2.8012332314965E-01  1.4590491968526E+00
    67  6.6000000000000E-01  2.3890160415707E-01  1.5466728500706E+00
    68  6.7000000000000E-01  1.9790453446449E-01  1.6263190128932E+00
    69  6.8000000000000E-01  1.5687308382141E-01  1.6971411622854E+00
    70  6.9000000000000E-01  1.1556193308074E-01  1.7583625221857E+00
    71  7.0000000000000E-01  7.3744428423981E-02  1.8092869520620E+00
    72  7.1000000000000E-01  3.1217251586937E-02  1.8493088380723E+00
    73  7.2000000000000E-01 -1.2195263060092E-02  1.8779218445154E+00
    74  7.3000000000000E-01 -5.6637228721341E-02  1.8947264005894E+00
    75  7.4000000000000E-01 -1.0221778214977E-01  1.8994358166205E+00
    76  7.5000000000000E-01 -1.4900818734561E-01  1.8918809445000E+00
    77  7.6000000000000E-01 -1.9703951191411E-01  1.8720133187893E+00
    78  7.7000000000000E-01 -2.4630091266682E-01  1.8399067372610E+00
    79  7.8000000000000E-01 -2.9673855920297E-01  1.7957572626190E+00
    80  7.9000000000000E-01 -3.4825521490037E-01  1.7398816498948E+00
    81  8.0000000000000E-01 -4.0071048577431E-01  1.6727142266398E+00
    82  8.1000000000000E-01 -4.5392173828322E-01  1.5948022749553E+00
    83  8.2000000000000E-01 -5.0766567778991E-01  1.5067999853695E+00
    84  8.3000000000000E-01 -5.6168057004228E-01  1.4094610722661E+00
    85  8.4000000000000E-01 -6.1566907902924E-01  1.3036301587242E+00
    86  8.5000000000000E-01 -6.6930168576465E-01  1.1902330549653E+00
    87  8.6000000000000E-01 -7.2222064428676E-01  1.0702660689269E+00
    88  8.7000000000000E-01 -7.7404442353107E-01  9.4478449959278E-01
    89  8.8000000000000E-01 -8.2437257659689E-01  8.1489047345136E-01
    90  8.9000000000000E-01 -8.7279097286144E-01  6.8172029173931E-01
    91  9.0000000000000E-01 -9.1887732287530E-01  5.4643146086225E-01
    92  9.1000000000000E-01 -9.6220692170480E-01  4.1018958055803E-01
    93  9.2000000000000E-01 -1.0023585328497E+00  2.7415526398441E-01
    94  9.3000000000000E-01 -1.0389203325943E+00  1.3947126102378E-01
    95  9.4000000000000E-01 -1.0714958333674E+00  7.2499507892518E-03
    96  9.5000000000000E-01 -1.0997097043883E+00 -1.2143863826455E-01
    97  9.6000000000000E-01 -1.1232134090300E+00 -2.4557813197145E-01
    98  9.7000000000000E-01 -1.1416905800799E+00 -3.6421630081343E-01
    99  9.8000000000000E-01 -1.1548620574395E+00 -4.7647461343377E-01
   100  9.9000000000000E-01 -1.1624905165995E+00 -5.8155674458118E-01
   101  1.0000000000000E+00 -1.1643846216524E+00 -6.7875594496045E-01
   102  1.0100000000000E+00 -1.1604026422171E+00 -7.6746119751225E-01
   103  1.0200000000000E+00 -1.1504554807833E+00 -8.4716210252860E-01
   104  1.0300000000000E+00 -1.1345090641674E+00 -9.1745245217478E-01
   105  1.0400000000000E+00 -1.1125860613273E+00 -9.7803247346579E-01
   106  1.0500000000000E+00 -1.0847668980027E+00 -1.0287097368728E+00
   107  1.0600000000000E+00 -1.0511900482195E+00 -1.0693987457477E+00
   108  1.0700000000000E+00 -1.0120515916356E+00 -1.1001192388203E+00
   109  1.0800000000000E+00 -9.6760403564139E-01 -1.1209932545164E+00
   110  1.0900000000000E+00 -9.1815441039621E-01 -1.1322410209842E+00
   111  1.1000000000000E+00 -8.6406165482182E-01 -1.1341757498286E+00
   112  1.1100000000000E+00 -8.0573332054486E-01 -1.1271974239830E+00
   113  1.1200000000000E+00 -7.4362163012895E-01 -1.1117856812613E+00
   114  1.1300000000000E+00 -6.7821893426578E-01 -1.0884919043678E+00
   115  1.1400000000000E+00 -6.1005262061983E-01 -1.0579306356713E+00
   116  1.1500000000000E+00 -5.3967953467314E-01 -1.0207704409607E+00
   117  1.1600000000000E+00 -4.6767997909119E-01 -9.7772435009442E-01
   118  1.1700000000000E+00 -3.9465136452992E-01 -9.2954000488628E-01
   119  1.1800000000000E+00 -3.2120158917394E-01 -8.7698964464338E-01
   120  1.1900000000000E+00 -2.4794222878913E-01 -8.2086005870572E-01
   121  1.2000000000000E+00 -1.7548162176280E-01 -7.6194263223633E-01
   122  1.2100000000000E+00 -1.0441793563969E-01 -7.0102360710107E-01
   123  1.2200000000000E+00 -3.5332302785556E-02 -6.3887467399217E-01
   124  1.2300000000000E+00  3.1217887694211E-02 -5.7624400471004E-01
   125  1.2400000000000E+00  9.4705455356639E-02 -5.1384782571950E-01
   126  1.2500000000000E+00  1.5463956746030E-01 -4.5236262477843E-01
   127  1.2600000000000E+00  2.1057147069519E-01 -3.9241807307794E-01
   128  1.2700000000000E+00  2.6209973918116E-01 -3.3459073483001E-01
   129  1.2800000000000E+00  3.0887496736996E-01 -2.7939862565946E-01
   130  1.2900000000000E+00  3.5060384223877E-01 -2.2729667049466E-01
   131  1.3000000000000E+00  3.8705253633600E-01 -1.7867310041711E-01
   132  1.3100000000000E+00  4.1804937034029E-01 -1.3384681745724E-01
   133  1.3200000000000E+00  4.4348670224409E-01 -9.3065745459684E-02
   134  1.3300000000000E+00  4.6332200892073E-01 -5.6506174894010E-02
   135  1.3400000000000E+00  4.7757813508171E-01 -2.4273099550543E-02
   136  1.3500000000000E+00  4.8634269435139E-01  3.5984665088536E-03
   137  1.3600000000000E+00  4.8976661741842E-01  2.7141212669022E-02
   138  1.3700000000000E+00  4.8806185233354E-01  4.6452325553465E-02
   139  1.3800000000000E+00  4.8149823317342E-01  6.1689391235152E-02
   140  1.3900000000000E+00  4.7039954378172E-01  7.3065452091659E-02
   141  1.4000000000000E+00  4.5513881475721E-01  8.0843273132592E-02
   142  1.4100000000000E+00  4.3613290308560E-01  8.5328881006637E-02
   143  1.4200000000000E+00  4.1383641529642E-01  8.6864447762814E-02
   144  1.4300000000000E+00  3.8873504656577E-01  8.5820600857690E-02
   145  1.4400000000000E+00  3.6133842015142E-01  8.2588251599998E-02
   146  1.4500000000000E+00  3.3217252287481E-01  7.7570045257653E-02
   147  1.4600000000000E+00  3.0177184452085E-01  7.1171549447731E-02
   148  1.4700000000000E+00  2.7067134023622E-01  6.3792311388417E-02
   149  1.4800000000000E+00  2.3939834637221E-01  5.5816930666066E-02
   150  1.4900000000000E+00  2.0846459073734E-01  4.7606311381096E-02
   151  1.5000000000000E+00  1.7835844759202E-01  3.9489290952690E-02
   152  1.5100000000000E+00  1.4953760254396E-01  3.1754684491424E-02
   153  1.5200000000000E+00  1.2242226620843E-01  2.4644718989048E-02
   154  1.5300000000000E+00  9.7389245738338E-02  1.8346188343576E-02
   155  1.5400000000000E+00  7.4767893391832E-02  1.2959929853882E-02
   156  1.5500000000000E+00  5.4833937878117E-02  8.5539098010816E-03
   157  1.5600000000000E+00  3.7806618192610E-02  5.1595782845520E-03
   158  1.5700000000000E+00  2.3848516207217E-02  2.7393831001382E-03
   159  1.5800000000000E+00  1.3065579442508E-02  1.1931845801401E-03
   160  1.5900000000000E+00  5.5063403017546E-03  3.6390232215684E-04
   161  1.6000000000000E+00  1.1921829115000E-03  4.6896564683896E-05
   162  1.6100000000000E+00 -4.4838314409851E-05 -7.6862119593167E-07
   163  1.6200000000000E+00  1.3329967662141E-05  3.3047636294605E-07
   164  1.63 -0. -0.
   165  1.64  0. -0.
   166  1.65  0.  0.
   167  1.66  0.  0.
   168  1.67  0.  0.
   169  1.68  0.  0.
   170  1.69  0.  0.
   171  1.70  0.  0.
   172  1.71  0.  0.
   173  1.72  0.  0.
   174  1.73  0.  0.
   175  1.74  0.  0.
   176  1.75  0.  0.
   177  1.76  0.  0.
   178  1.77  0.  0.
   179  1.78  0.  0.
   180  1.79  0.  0.
   181  1.80  0.  0.
   182  1.81  0.  0.
   183  1.82  0.  0.
   184  1.83  0.  0.
   185  1.84  0.  0.
   186  1.85  0.  0.
   187  1.86  0.  0.
   188  1.87  0.  0.
   189  1.88  0.  0.
   190  1.89  0.  0.
   191  1.90  0.  0.
   192  1.91  0.  0.
   193  1.92  0.  0.
   194  1.93  0.  0.
   195  1.94  0.  0.
   196  1.95  0.  0.
   197  1.96  0.  0.
   198  1.97  0.  0.
   199  1.98  0.  0.
   200  1.99  0.  0.
   201  2.00  0.  0.
   202  2.01  0.  0.
   203  2.02  0.  0.
   204  2.03  0.  0.
   205  2.04  0.  0.
   206  2.05  0.  0.
   207  2.06  0.  0.
   208  2.07  0.  0.
   209  2.08  0.  0.
   210  2.09  0.  0.
   211  2.10  0.  0.
   212  2.11  0.  0.
   213  2.12  0.  0.
   214  2.13  0.  0.
   215  2.14  0.  0.
   216  2.15  0.  0.
   217  2.16  0.  0.
   218  2.17  0.  0.
   219  2.18  0.  0.
   220  2.19  0.  0.
   221  2.20  0.  0.
   222  2.21  0.  0.
   223  2.22  0.  0.
   224  2.23  0.  0.
   225  2.24  0.  0.
   226  2.25  0.  0.
   227  2.26  0.  0.
   228  2.27  0.  0.
   229  2.28  0.  0.
   230  2.29  0.  0.
   231  2.30  0.  0.
   232  2.31  0.  0.
   233  2.32  0.  0.
   234  2.33  0.  0.
   235  2.34  0.  0.
   236  2.35  0.  0.
   237  2.36  0.  0.
   238  2.37  0.  0.
   239  2.38  0.  0.
   240  2.39  0.  0.
   241  2.40  0.  0.