Be    ONCVPSP-4.0.1  r_core=   1.85703   1.80230
      4.0000      4.0000      220120    zatom,zion,pspd
     8      11   1     4   400     0    pspcod,pspxc,lmax,lloc,mmax,r2well
  3.99000000  0.00000000  0.00000000    rchrg fchrg qchrg
     2     2     0     0     0    nproj
     1     1           extension_switch
   0                        -6.2926825088808E+00 -2.3271410758356E+00
     1  0.0000000000000E+00  1.5297096922495E-11 -8.6690710165982E-11
     2  1.0000000000000E-02  6.5280750159323E-02 -3.5197319133948E-02
     3  2.0000000000000E-02  1.3044065267168E-01 -7.0253793636696E-02
     4  3.0000000000000E-02  1.9535913304045E-01 -1.0502893961482E-01
     5  4.0000000000000E-02  2.5991616267498E-01 -1.3938299501617E-01
     6  5.0000000000000E-02  3.2399253085292E-01 -1.7317728144227E-01
     7  6.0000000000000E-02  3.8747011548250E-01 -2.0627456696809E-01
     8  7.0000000000000E-02  4.5023215224637E-01 -2.3853943020125E-01
     9  8.0000000000000E-02  5.1216350169328E-01 -2.6983862572627E-01
    10  9.0000000000000E-02  5.7315091382538E-01 -3.0004145097353E-01
    11  1.0000000000000E-01  6.3308328970748E-01 -3.2902011442952E-01
    12  1.1000000000000E-01  6.9185193960091E-01 -3.5665010496626E-01
    13  1.2000000000000E-01  7.4935083709886E-01 -3.8281056191623E-01
    14  1.3000000000000E-01  8.0547686871315E-01 -4.0738464535628E-01
    15  1.4000000000000E-01  8.6013007833456E-01 -4.3025990589361E-01
    16  1.5000000000000E-01  9.1321390596109E-01 -4.5132865307080E-01
    17  1.6000000000000E-01  9.6463542006118E-01 -4.7048832132889E-01
    18  1.7000000000000E-01  1.0143055429128E+00 -4.8764183228938E-01
    19  1.8000000000000E-01  1.0621392682354E+00 -5.0269795194278E-01
    20  1.9000000000000E-01  1.1080558704099E+00 -5.1557164116363E-01
    21  2.0000000000000E-01  1.1519791045640E+00 -5.2618439781506E-01
    22  2.1000000000000E-01  1.1938373967855E+00 -5.3446458856112E-01
    23  2.2000000000000E-01  1.2335640237165E+00 -5.4034776837599E-01
    24  2.3000000000000E-01  1.2710972807767E+00 -5.4377698562867E-01
    25  2.4000000000000E-01  1.3063806382651E+00 -5.4470307053081E-01
    26  2.5000000000000E-01  1.3393628845966E+00 -5.4308490466867E-01
    27  2.6000000000000E-01  1.3699982559419E+00 -5.3888966929656E-01
    28  2.7000000000000E-01  1.3982465515617E+00 -5.3209307005352E-01
    29  2.8000000000000E-01  1.4240732341522E+00 -5.2267953577577E-01
    30  2.9000000000000E-01  1.4474495145527E+00 -5.1064238911751E-01
    31  3.0000000000000E-01  1.4683524202087E+00 -4.9598398676199E-01
    32  3.1000000000000E-01  1.4867648468338E+00 -4.7871582710299E-01
    33  3.2000000000000E-01  1.5026755927669E+00 -4.5885862340533E-01
    34  3.3000000000000E-01  1.5160793755868E+00 -4.3644234060903E-01
    35  3.4000000000000E-01  1.5269768306148E+00 -4.1150619412688E-01
    36  3.5000000000000E-01  1.5353744910120E+00 -3.8409860919592E-01
    37  3.6000000000000E-01  1.5412847492578E+00 -3.5427713957914E-01
    38  3.7000000000000E-01  1.5447257998859E+00 -3.2210834467296E-01
    39  3.8000000000000E-01  1.5457215634432E+00 -2.8766762435483E-01
    40  3.9000000000000E-01  1.5443015917311E+00 -2.5103901120287E-01
    41  4.0000000000000E-01  1.5405009544897E+00 -2.1231492003155E-01
    42  4.1000000000000E-01  1.5343601077834E+00 -1.7159585501138E-01
    43  4.2000000000000E-01  1.5259247444487E+00 -1.2899007497302E-01
    44  4.3000000000000E-01  1.5152456270682E+00 -8.4613217834069E-02
    45  4.4000000000000E-01  1.5023784040334E+00 -3.8587885424971E-02
    46  4.5000000000000E-01  1.4873834093641E+00  8.9568096723981E-03
    47  4.6000000000000E-01  1.4703254470447E+00  5.7885733330067E-02
    48  4.7000000000000E-01  1.4512735607357E+00  1.0805825285903E-01
    49  4.8000000000000E-01  1.4303007898085E+00  1.5932879120298E-01
    50  4.9000000000000E-01  1.4074839127340E+00  2.1154740947975E-01
    51  5.0000000000000E-01  1.3829031789383E+00  2.6456041473984E-01
    52  5.1000000000000E-01  1.3566420303083E+00  3.1821098956612E-01
    53  5.2000000000000E-01  1.3287868135951E+00  3.7233983991941E-01
    54  5.3000000000000E-01  1.2994264850196E+00  4.2678585744528E-01
    55  5.4000000000000E-01  1.2686523084320E+00  4.8138679229971E-01
    56  5.5000000000000E-01  1.2365575484143E+00  5.3597993242749E-01
    57  5.6000000000000E-01  1.2032371597429E+00  5.9040278513924E-01
    58  5.7000000000000E-01  1.1687874746472E+00  6.4449375678166E-01
    59  5.8000000000000E-01  1.1333058893062E+00  6.9809282628267E-01
    60  5.9000000000000E-01  1.0968905510221E+00  7.5104220837837E-01
    61  6.0000000000000E-01  1.0596400474969E+00  8.0318700239221E-01
    62  6.1000000000000E-01  1.0216530996130E+00  8.5437582253912E-01
    63  6.2000000000000E-01  9.8302825908442E-01  9.0446140586606E-01
    64  6.3000000000000E-01  9.4386361230148E-01  9.5330119411615E-01
    65  6.4000000000000E-01  9.0425649163556E-01  1.0007578860133E+00
    66  6.5000000000000E-01  8.6430319541061E-01  1.0466999567062E+00
    67  6.6000000000000E-01  8.2409871767353E-01  1.0910021413829E+00
    68  6.7000000000000E-01  7.8373648881808E-01  1.1335458803678E+00
    69  6.8000000000000E-01  7.4330812802964E-01  1.1742197233340E+00
    70  6.9000000000000E-01  7.0290320842620E-01  1.2129196906113E+00
    71  7.0000000000000E-01  6.6260903567287E-01  1.2495495899311E+00
    72  7.1000000000000E-01  6.2251044074562E-01  1.2840212873231E+00
    73  7.2000000000000E-01  5.8268958741407E-01  1.3162549312652E+00
    74  7.3000000000000E-01  5.4322579490633E-01  1.3461791295773E+00
    75  7.4000000000000E-01  5.0419537610949E-01  1.3737310789412E+00
    76  7.5000000000000E-01  4.6567149155108E-01  1.3988566473160E+00
    77  7.6000000000000E-01  4.2772401929819E-01  1.4215104099009E+00
    78  7.7000000000000E-01  3.9041944080555E-01  1.4416556396669E+00
    79  7.8000000000000E-01  3.5382074264019E-01  1.4592642538331E+00
    80  7.9000000000000E-01  3.1798733391135E-01  1.4743167180013E+00
    81  8.0000000000000E-01  2.8297497913982E-01  1.4868019099743E+00
    82  8.1000000000000E-01  2.4883574621198E-01  1.4967169455745E+00
    83  8.2000000000000E-01  2.1561796898154E-01  1.5040669690349E+00
    84  8.3000000000000E-01  1.8336622400657E-01  1.5088649107700E+00
    85  8.4000000000000E-01  1.5212132084197E-01  1.5111312155217E+00
    86  8.5000000000000E-01  1.2192030524798E-01  1.5108935440430E+00
    87  8.6000000000000E-01  9.2796474624719E-02  1.5081864515995E+00
    88  8.7000000000000E-01  6.4779404940999E-02  1.5030510466605E+00
    89  8.8000000000000E-01  3.7894988392607E-02  1.4955346331943E+00
    90  8.9000000000000E-01  1.2165481002236E-02  1.4856903399964E+00
    91  9.0000000000000E-01 -1.2390440641448E-02  1.4735767404472E+00
    92  9.1000000000000E-01 -3.5757614313216E-02  1.4592574660349E+00
    93  9.2000000000000E-01 -5.7924319553285E-02  1.4428008168737E+00
    94  9.3000000000000E-01 -7.8882198334091E-02  1.4242793723176E+00
    95  9.4000000000000E-01 -9.8626169763970E-02  1.4037696045988E+00
    96  9.5000000000000E-01 -1.1715433957246E-01  1.3813514982261E+00
    97  9.6000000000000E-01 -1.3446790508758E-01  1.3571081776549E+00
    98  9.7000000000000E-01 -1.5057105637511E-01  1.3311255454944E+00
    99  9.8000000000000E-01 -1.6547087416374E-01  1.3034919332506E+00
   100  9.9000000000000E-01 -1.7917722513003E-01  1.2742977663208E+00
   101  1.0000000000000E+00 -1.9170265506247E-01  1.2436352446613E+00
   102  1.0100000000000E+00 -2.0306228036745E-01  1.2115980402427E+00
   103  1.0200000000000E+00 -2.1327367832111E-01  1.1782810121028E+00
   104  1.0300000000000E+00 -2.2235677641115E-01  1.1437799394941E+00
   105  1.0400000000000E+00 -2.3033374105335E-01  1.1081912733192E+00
   106  1.0500000000000E+00 -2.3722886590870E-01  1.0716119057507E+00
   107  1.0600000000000E+00 -2.4306845997019E-01  1.0341389576424E+00
   108  1.0700000000000E+00 -2.4788073553421E-01  9.9586958307167E-01
   109  1.0800000000000E+00 -2.5169569612100E-01  9.5690079009769E-01
   110  1.0900000000000E+00 -2.5454502436203E-01  9.1732927659094E-01
   111  1.1000000000000E+00 -2.5646196983126E-01  8.7725127978547E-01
   112  1.1100000000000E+00 -2.5748123676099E-01  8.3676243802608E-01
   113  1.1200000000000E+00 -2.5763887155389E-01  7.9595766303676E-01
   114  1.1300000000000E+00 -2.5697214997919E-01  7.5493102092033E-01
   115  1.1400000000000E+00 -2.5551946392530E-01  7.1377562001711E-01
   116  1.1500000000000E+00 -2.5332020757156E-01  6.7258350370254E-01
   117  1.1600000000000E+00 -2.5041466284021E-01  6.3144554619014E-01
   118  1.1700000000000E+00 -2.4684388399498E-01  5.9045134942806E-01
   119  1.1800000000000E+00 -2.4264958126502E-01  5.4968913923353E-01
   120  1.1900000000000E+00 -2.3787400339269E-01  5.0924565889914E-01
   121  1.2000000000000E+00 -2.3255981902932E-01  4.6920605862722E-01
   122  1.2100000000000E+00 -2.2674999693586E-01  4.2965377930083E-01
   123  1.2200000000000E+00 -2.2048768498308E-01  3.9067042928159E-01
   124  1.2300000000000E+00 -2.1381608798917E-01  3.5233565313052E-01
   125  1.2400000000000E+00 -2.0677834448033E-01  3.1472699137903E-01
   126  1.2500000000000E+00 -1.9941740251126E-01  2.7791973072606E-01
   127  1.2600000000000E+00 -1.9177589473650E-01  2.4198674430302E-01
   128  1.2700000000000E+00 -1.8389601298004E-01  2.0699832192704E-01
   129  1.2800000000000E+00 -1.7581938260783E-01  1.7302199054921E-01
   130  1.2900000000000E+00 -1.6758693706533E-01  1.4012232539515E-01
   131  1.3000000000000E+00 -1.5923879299911E-01  1.0836075258755E-01
   132  1.3100000000000E+00 -1.5081412643623E-01  7.7795344326558E-02
   133  1.3200000000000E+00 -1.4235105054759E-01  4.8480607982963E-02
   134  1.3300000000000E+00 -1.3388649557010E-01  2.0467270726232E-02
   135  1.3400000000000E+00 -1.2545609150628E-01 -6.1979384405129E-03
   136  1.3500000000000E+00 -1.1709405425898E-01 -3.1472507137111E-02
   137  1.3600000000000E+00 -1.0883307589096E-01 -5.5318356245905E-02
   138  1.3700000000000E+00 -1.0070421972492E-01 -7.7702052247071E-02
   139  1.3800000000000E+00 -9.2736821017428E-02 -9.8595012613510E-02
   140  1.3900000000000E+00 -8.4958393949669E-02 -1.1797370151310E-01
   141  1.4000000000000E+00 -7.7394545679750E-02 -1.3581981298479E-01
   142  1.4100000000000E+00 -7.0068898192869E-02 -1.5212043871098E-01
   143  1.4200000000000E+00 -6.3003018669055E-02 -1.6686821750272E-01
   144  1.4300000000000E+00 -5.6216359061537E-02 -1.8006146364763E-01
   145  1.4400000000000E+00 -4.9726205543340E-02 -1.9170427134283E-01
   146  1.4500000000000E+00 -4.3547638434377E-02 -2.0180659254791E-01
   147  1.4600000000000E+00 -3.7693503167431E-02 -2.1038428574392E-01
   148  1.4700000000000E+00 -3.2174392788542E-02 -2.1745913327341E-01
   149  1.4800000000000E+00 -2.6998642416295E-02 -2.2305882516184E-01
   150  1.4900000000000E+00 -2.2172336003063E-02 -2.2721690759226E-01
   151  1.5000000000000E+00 -1.7699325708825E-02 -2.2997269425601E-01
   152  1.5100000000000E+00 -1.3581263698162E-02 -2.3137114096479E-01
   153  1.5200000000000E+00 -9.8176492350525E-03 -2.3146266997189E-01
   154  1.5300000000000E+00 -6.4058890433288E-03 -2.3030295270284E-01
   155  1.5400000000000E+00 -3.3413593680883E-03 -2.2795270211111E-01
   156  1.5500000000000E+00 -6.1747675780962E-04 -2.2447744140650E-01
   157  1.5600000000000E+00  1.7742177622690E-03 -2.1994722720051E-01
   158  1.5700000000000E+00  3.8439616865292E-03 -2.1443632885036E-01
   159  1.5800000000000E+00  5.6036618937696E-03 -2.0802286627133E-01
   160  1.5900000000000E+00  7.0667741735601E-03 -2.0078840880588E-01
   161  1.6000000000000E+00  8.2481723070401E-03 -1.9281753809116E-01
   162  1.6100000000000E+00  9.1640076677850E-03 -1.8419737811327E-01
   163  1.6200000000000E+00  9.8315603846942E-03 -1.7501709591229E-01
   164  1.6300000000000E+00  1.0269083192569E-02 -1.6536737672244E-01
   165  1.6400000000000E+00  1.0495639149876E-02 -1.5533987753094E-01
   166  1.6500000000000E+00  1.0530934468121E-02 -1.4502666329862E-01
   167  1.6600000000000E+00  1.0395147751483E-02 -1.3451963030735E-01
   168  1.6700000000000E+00  1.0108756976658E-02 -1.2390992123055E-01
   169  1.6800000000000E+00  9.6923655825838E-03 -1.1328733670075E-01
   170  1.6900000000000E+00  9.1665290490693E-03 -1.0273974820171E-01
   171  1.7000000000000E+00  8.5515833627580E-03 -9.2352517218484E-02
   172  1.7100000000000E+00  7.8674767522033E-03 -8.2207925535939E-02
   173  1.7200000000000E+00  7.1336060622050E-03 -7.2384621562693E-02
   174  1.7300000000000E+00  6.3686591259304E-03 -6.2957087355951E-02
   175  1.7400000000000E+00  5.5904643108098E-03 -5.3995132310477E-02
   176  1.7500000000000E+00  4.8158489300273E-03 -4.5563412861221E-02
   177  1.7600000000000E+00  4.0605068779624E-03 -3.7720992845767E-02
   178  1.7700000000000E+00  3.3388653085935E-03 -3.0521070970552E-02
   179  1.7800000000000E+00  2.6639574486156E-03 -2.4010783937341E-02
   180  1.7900000000000E+00  2.0474101094640E-03 -1.8229961840744E-02
   181  1.8000000000000E+00  1.4993124058895E-03 -1.3211446377161E-02
   182  1.8100000000000E+00  1.0281375133441E-03 -8.9809744936760E-03
   183  1.8200000000000E+00  6.4068956273308E-04 -5.5569941450641E-03
   184  1.8300000000000E+00  3.4219434192571E-04 -2.9516620156705E-03
   185  1.8400000000000E+00  1.3486730382616E-04 -1.1587282250326E-03
   186  1.8500000000000E+00  2.5099598148061E-05 -2.1507022362537E-04
   187  1.8600000000000E+00 -2.5958246242280E-06  2.2202401795965E-05
   188  1.8700000000000E+00  5.0496340542758E-07 -4.3210684113708E-06
   189  1.8800 -0.  0.
   190  1.8900 -0.  0.
   191  1.9000  0. -0.
   192  1.9100  0.  0.
   193  1.9200  0.  0.
   194  1.9300  0.  0.
   195  1.9400  0.  0.
   196  1.9500  0.  0.
   197  1.9600  0.  0.
   198  1.9700  0.  0.
   199  1.9800  0.  0.
   200  1.9900  0.  0.
   201  2.0000  0.  0.
   202  2.0100  0.  0.
   203  2.0200  0.  0.
   204  2.0300  0.  0.
   205  2.0400  0.  0.
   206  2.0500  0.  0.
   207  2.0600  0.  0.
   208  2.0700  0.  0.
   209  2.0800  0.  0.
   210  2.0900  0.  0.
   211  2.1000  0.  0.
   212  2.1100  0.  0.
   213  2.1200  0.  0.
   214  2.1300  0.  0.
   215  2.1400  0.  0.
   216  2.1500  0.  0.
   217  2.1600  0.  0.
   218  2.1700  0.  0.
   219  2.1800  0.  0.
   220  2.1900  0.  0.
   221  2.2000  0.  0.
   222  2.2100  0.  0.
   223  2.2200  0.  0.
   224  2.2300  0.  0.
   225  2.2400  0.  0.
   226  2.2500  0.  0.
   227  2.2600  0.  0.
   228  2.2700  0.  0.
   229  2.2800  0.  0.
   230  2.2900  0.  0.
   231  2.3000  0.  0.
   232  2.3100  0.  0.
   233  2.3200  0.  0.
   234  2.3300  0.  0.
   235  2.3400  0.  0.
   236  2.3500  0.  0.
   237  2.3600  0.  0.
   238  2.3700  0.  0.
   239  2.3800  0.  0.
   240  2.3900  0.  0.
   241  2.4000  0.  0.
   242  2.4100  0.  0.
   243  2.4200  0.  0.
   244  2.4300  0.  0.
   245  2.4400  0.  0.
   246  2.4500  0.  0.
   247  2.4600  0.  0.
   248  2.4700  0.  0.
   249  2.4800  0.  0.
   250  2.4900  0.  0.
   251  2.5000  0.  0.
   252  2.5100  0.  0.
   253  2.5200  0.  0.
   254  2.5300  0.  0.
   255  2.5400  0.  0.
   256  2.5500  0.  0.
   257  2.5600  0.  0.
   258  2.5700  0.  0.
   259  2.5800  0.  0.
   260  2.5900  0.  0.
   261  2.6000  0.  0.
   262  2.6100  0.  0.
   263  2.6200  0.  0.
   264  2.6300  0.  0.
   265  2.6400  0.  0.
   266  2.6500  0.  0.
   267  2.6600  0.  0.
   268  2.6700  0.  0.
   269  2.6800  0.  0.
   270  2.6900  0.  0.
   271  2.7000  0.  0.
   272  2.7100  0.  0.
   273  2.7200  0.  0.
   274  2.7300  0.  0.
   275  2.7400  0.  0.
   276  2.7500  0.  0.
   277  2.7600  0.  0.
   278  2.7700  0.  0.
   279  2.7800  0.  0.
   280  2.7900  0.  0.
   281  2.8000  0.  0.
   282  2.8100  0.  0.
   283  2.8200  0.  0.
   284  2.8300  0.  0.
   285  2.8400  0.  0.
   286  2.8500  0.  0.
   287  2.8600  0.  0.
   288  2.8700  0.  0.
   289  2.8800  0.  0.
   290  2.8900  0.  0.
   291  2.9000  0.  0.
   292  2.9100  0.  0.
   293  2.9200  0.  0.
   294  2.9300  0.  0.
   295  2.9400  0.  0.
   296  2.9500  0.  0.
   297  2.9600  0.  0.
   298  2.9700  0.  0.
   299  2.9800  0.  0.
   300  2.9900  0.  0.
   301  3.0000  0.  0.
   302  3.0100  0.  0.
   303  3.0200  0.  0.
   304  3.0300  0.  0.
   305  3.0400  0.  0.
   306  3.0500  0.  0.
   307  3.0600  0.  0.
   308  3.0700  0.  0.
   309  3.0800  0.  0.
   310  3.0900  0.  0.
   311  3.1000  0.  0.
   312  3.1100  0.  0.
   313  3.1200  0.  0.
   314  3.1300  0.  0.
   315  3.1400  0.  0.
   316  3.1500  0.  0.
   317  3.1600  0.  0.
   318  3.1700  0.  0.
   319  3.1800  0.  0.
   320  3.1900  0.  0.
   321  3.2000  0.  0.
   322  3.2100  0.  0.
   323  3.2200  0.  0.
   324  3.2300  0.  0.
   325  3.2400  0.  0.
   326  3.2500  0.  0.
   327  3.2600  0.  0.
   328  3.2700  0.  0.
   329  3.2800  0.  0.
   330  3.2900  0.  0.
   331  3.3000  0.  0.
   332  3.3100  0.  0.
   333  3.3200  0.  0.
   334  3.3300  0.  0.
   335  3.3400  0.  0.
   336  3.3500  0.  0.
   337  3.3600  0.  0.
   338  3.3700  0.  0.
   339  3.3800  0.  0.
   340  3.3900  0.  0.
   341  3.4000  0.  0.
   342  3.4100  0.  0.
   343  3.4200  0.  0.
   344  3.4300  0.  0.
   345  3.4400  0.  0.
   346  3.4500  0.  0.
   347  3.4600  0.  0.
   348  3.4700  0.  0.
   349  3.4800  0.  0.
   350  3.4900  0.  0.
   351  3.5000  0.  0.
   352  3.5100  0.  0.
   353  3.5200  0.  0.
   354  3.5300  0.  0.
   355  3.5400  0.  0.
   356  3.5500  0.  0.
   357  3.5600  0.  0.
   358  3.5700  0.  0.
   359  3.5800  0.  0.
   360  3.5900  0.  0.
   361  3.6000  0.  0.
   362  3.6100  0.  0.
   363  3.6200  0.  0.
   364  3.6300  0.  0.
   365  3.6400  0.  0.
   366  3.6500  0.  0.
   367  3.6600  0.  0.
   368  3.6700  0.  0.
   369  3.6800  0.  0.
   370  3.6900  0.  0.
   371  3.7000  0.  0.
   372  3.7100  0.  0.
   373  3.7200  0.  0.
   374  3.7300  0.  0.
   375  3.7400  0.  0.
   376  3.7500  0.  0.
   377  3.7600  0.  0.
   378  3.7700  0.  0.
   379  3.7800  0.  0.
   380  3.7900  0.  0.
   381  3.8000  0.  0.
   382  3.8100  0.  0.
   383  3.8200  0.  0.
   384  3.8300  0.  0.
   385  3.8400  0.  0.
   386  3.8500  0.  0.
   387  3.8600  0.  0.
   388  3.8700  0.  0.
   389  3.8800  0.  0.
   390  3.8900  0.  0.
   391  3.9000  0.  0.
   392  3.9100  0.  0.
   393  3.9200  0.  0.
   394  3.9300  0.  0.
   395  3.9400  0.  0.
   396  3.9500  0.  0.
   397  3.9600  0.  0.
   398  3.9700  0.  0.
   399  3.9800  0.  0.
   400  3.9900  0.  0.
   1                        -1.6756182177053E+00 -5.7216746487024E-01
     1  0.0000000000000E+00 -1.6417350777453E-09  4.7004666270389E-09
     2  1.0000000000000E-02 -4.1330689998340E-05  1.1994324946314E-03
     3  2.0000000000000E-02 -1.7014618875498E-04  4.7806065245185E-03
     4  3.0000000000000E-02 -4.0089639605596E-04  1.0692380815819E-02
     5  4.0000000000000E-02 -7.5759530920350E-04  1.8850281081387E-02
     6  5.0000000000000E-02 -1.2737130716737E-03  2.9137633184323E-02
     7  6.0000000000000E-02 -1.9920166271747E-03  4.1407132434068E-02
     8  7.0000000000000E-02 -2.9643511843913E-03  5.5482831993550E-02
     9  8.0000000000000E-02 -4.2513530559676E-03  7.1162528675459E-02
    10  9.0000000000000E-02 -5.9220832101799E-03  8.8220519831663E-02
    11  1.0000000000000E-01 -8.0535701327028E-03  1.0641070062584E-01
    12  1.1000000000000E-01 -1.0730250393291E-02  1.2546996676158E-01
    13  1.2000000000000E-01 -1.4043295686151E-02  1.4512188375503E-01
    14  1.3000000000000E-01 -1.8089816085166E-02  1.6508058013464E-01
    15  1.4000000000000E-01 -2.2971930830124E-02  1.8505481856384E-01
    16  1.5000000000000E-01 -2.8795700122473E-02  2.0475219586345E-01
    17  1.6000000000000E-01 -3.5669914127604E-02  2.2388342030534E-01
    18  1.7000000000000E-01 -4.3704738603941E-02  2.4216661240781E-01
    19  1.8000000000000E-01 -5.3010220240794E-02  2.5933157383441E-01
    20  1.9000000000000E-01 -6.3694658804025E-02  2.7512396792917E-01
    21  2.0000000000000E-01 -7.5862857465080E-02  2.8930935495950E-01
    22  2.1000000000000E-01 -8.9614267116757E-02  3.0167702532364E-01
    23  2.2000000000000E-01 -1.0504104494128E-01  3.1204357485213E-01
    24  2.3000000000000E-01 -1.2222605186946E-01  3.2025616792275E-01
    25  2.4000000000000E-01 -1.4124081772687E-01  3.2619543643952E-01
    26  2.5000000000000E-01 -1.6214350667704E-01  3.2977796581528E-01
    27  2.6000000000000E-01 -1.8497691891826E-01  3.3095832294766E-01
    28  2.7000000000000E-01 -2.0976656735129E-01  3.2973058578525E-01
    29  2.8000000000000E-01 -2.3651887000074E-01  3.2612933942597E-01
    30  2.9000000000000E-01 -2.6521950024669E-01  3.2023010974172E-01
    31  3.0000000000000E-01 -2.9583193732225E-01  3.1214921223850E-01
    32  3.1000000000000E-01 -3.2829625899328E-01  3.0204300118056E-01
    33  3.2000000000000E-01 -3.6252821681306E-01  2.9010651185853E-01
    34  3.3000000000000E-01 -3.9841863181317E-01  2.7657149717965E-01
    35  3.4000000000000E-01 -4.3583314495179E-01  2.6170386840358E-01
    36  3.5000000000000E-01 -4.7461235211409E-01  2.4580055872921E-01
    37  3.6000000000000E-01 -5.1457234799222E-01  2.2918583743486E-01
    38  3.7000000000000E-01 -5.5550569683554E-01  2.1220711125341E-01
    39  3.8000000000000E-01 -5.9718284094649E-01  1.9523025848795E-01
    40  3.9000000000000E-01 -6.3935395001984E-01  1.7863454989600E-01
    41  4.0000000000000E-01 -6.8175120611502E-01  1.6280721844432E-01
    42  4.1000000000000E-01 -7.2409151036737E-01  1.4813774751200E-01
    43  4.2000000000000E-01 -7.6607958864761E-01  1.3501195385103E-01
    44  4.3000000000000E-01 -8.0741146445093E-01  1.2380594745676E-01
    45  4.4000000000000E-01 -8.4777825852152E-01  1.1488005532265E-01
    46  4.5000000000000E-01 -8.8687026628807E-01  1.0857279972862E-01
    47  4.6000000000000E-01 -9.2438125629027E-01  1.0519502412895E-01
    48  4.7000000000000E-01 -9.6001292560450E-01  1.0502426076948E-01
    49  4.8000000000000E-01 -9.9347944200800E-01  1.0829943379657E-01
    50  4.9000000000000E-01 -1.0245119974235E+00  1.1521598976638E-01
    51  5.0000000000000E-01 -1.0528632932121E+00  1.2592154408869E-01
    52  5.1000000000000E-01 -1.0783118752670E+00  1.4051212703535E-01
    53  5.2000000000000E-01 -1.1006662357078E+00  1.5902910652639E-01
    54  5.3000000000000E-01 -1.1197685983819E+00  1.8145685701930E-01
    55  5.4000000000000E-01 -1.1354983073839E+00  2.0772123454034E-01
    56  5.5000000000000E-01 -1.1477747414494E+00  2.3768890730627E-01
    57  5.6000000000000E-01 -1.1565596823482E+00  2.7116757961542E-01
    58  5.7000000000000E-01 -1.1618590722574E+00  3.0790713388676E-01
    59  5.8000000000000E-01 -1.1637241034669E+00  3.4760170206572E-01
    60  5.9000000000000E-01 -1.1622515935503E+00  3.8989266329187E-01
    61  6.0000000000000E-01 -1.1575836101918E+00  4.3437254994626E-01
    62  6.1000000000000E-01 -1.1499063220201E+00  4.8058982919574E-01
    63  6.2000000000000E-01 -1.1394480648789E+00  5.2805451216783E-01
    64  6.3000000000000E-01 -1.1264766267397E+00  5.7624452817267E-01
    65  6.4000000000000E-01 -1.1112957686928E+00  6.2461278719161E-01
    66  6.5000000000000E-01 -1.0942410138948E+00  6.7259484043045E-01
    67  6.6000000000000E-01 -1.0756747507220E+00  7.1961703633791E-01
    68  6.7000000000000E-01 -1.0559807104219E+00  7.6510505835871E-01
    69  6.8000000000000E-01 -1.0355578929828E+00  8.0849272105209E-01
    70  6.9000000000000E-01 -1.0148140274856E+00  8.4923089327217E-01
    71  7.0000000000000E-01 -9.9415866459914E-01  8.8679641106145E-01
    72  7.1000000000000E-01 -9.7399600888271E-01  9.2070083891705E-01
    73  7.2000000000000E-01 -9.5471760693217E-01  9.5049893627968E-01
    74  7.3000000000000E-01 -9.3669501394764E-01  9.7579668656884E-01
    75  7.4000000000000E-01 -9.2027256583290E-01  9.9625874890399E-01
    76  7.5000000000000E-01 -9.0576038631252E-01  1.0116151978382E+00
    77  7.6000000000000E-01 -8.9342775866836E-01  1.0216674239684E+00
    78  7.7000000000000E-01 -8.8349698948035E-01  1.0262930781233E+00
    79  7.8000000000000E-01 -8.7613788718352E-01  1.0254499538661E+00
    80  7.9000000000000E-01 -8.7146297133773E-01  1.0191787171501E+00
    81  8.0000000000000E-01 -8.6952351931184E-01  1.0076044079514E+00
    82  8.1000000000000E-01 -8.7030654571168E-01  9.9093665636349E-01
    83  8.2000000000000E-01 -8.7373279647996E-01  9.6946857472938E-01
    84  8.3000000000000E-01 -8.7965582435343E-01  9.4357430761780E-01
    85  8.4000000000000E-01 -8.8786219550670E-01  9.1370524252931E-01
    86  8.5000000000000E-01 -8.9807285900270E-01  8.8038490580763E-01
    87  8.6000000000000E-01 -9.0994569140253E-01  8.4420258998944E-01
    88  8.7000000000000E-01 -9.2307920888046E-01  8.0580578039404E-01
    89  8.8000000000000E-01 -9.3701741878422E-01  7.6589146976953E-01
    90  8.9000000000000E-01 -9.5125576213189E-01  7.2519646991092E-01
    91  9.0000000000000E-01 -9.6524807840987E-01  6.8448684799110E-01
    92  9.1000000000000E-01 -9.7841450459690E-01  6.4454663255470E-01
    93  9.2000000000000E-01 -9.9015020195275E-01  6.0616594939075E-01
    94  9.3000000000000E-01 -9.9983478712376E-01  5.7012876052588E-01
    95  9.4000000000000E-01 -1.0068423288689E+00  5.3720039009333E-01
    96  9.5000000000000E-01 -1.0105517585065E+00  5.0811502860381E-01
    97  9.6000000000000E-01 -1.0103575313023E+00  4.8356341197914E-01
    98  9.7000000000000E-01 -1.0056803677093E+00  4.6418087346166E-01
    99  9.8000000000000E-01 -9.9597789782619E-01  4.5053596508666E-01
   100  9.9000000000000E-01 -9.8075502982529E-01  4.4311984074967E-01
   101  1.0000000000000E+00 -9.5957386351679E-01  4.4233658502555E-01
   102  1.0100000000000E+00 -9.3206297371921E-01  4.4849466086507E-01
   103  1.0200000000000E+00 -8.9792589469422E-01  4.6179963521991E-01
   104  1.0300000000000E+00 -8.5694864653338E-01  4.8234832468932E-01
   105  1.0400000000000E+00 -8.0900615692896E-01  5.1012448368445E-01
   106  1.0500000000000E+00 -7.5406744706743E-01  5.4499613562051E-01
   107  1.0600000000000E+00 -6.9219946825582E-01  5.8671462357025E-01
   108  1.0700000000000E+00 -6.2356949600318E-01  6.3491543107444E-01
   109  1.0800000000000E+00 -5.4844601041676E-01  6.8912079667858E-01
   110  1.0900000000000E+00 -4.6719801549506E-01  7.4874411778912E-01
   111  1.1000000000000E+00 -3.8029277486556E-01  8.1309611099938E-01
   112  1.1100000000000E+00 -2.8829196735770E-01  8.8139266754717E-01
   113  1.1200000000000E+00 -1.9184629194045E-01  9.5276431464962E-01
   114  1.1300000000000E+00 -9.1688577789824E-02  1.0262671663321E+00
   115  1.1400000000000E+00  1.1374519199467E-02  1.1008952218197E+00
   116  1.1500000000000E+00  1.1647212733950E-01  1.1755938456520E+00
   117  1.1600000000000E+00  2.2267994820007E-01  1.2492742422428E+00
   118  1.1700000000000E+00  3.2903207288604E-01  1.3208287186309E+00
   119  1.1800000000000E+00  4.3453365545346E-01  1.3891465133601E+00
   120  1.1900000000000E+00  5.3817425661685E-01  1.4531299568185E+00
   121  1.2000000000000E+00  6.3894165713835E-01  1.5117107194010E+00
   122  1.2100000000000E+00  7.3583592965431E-01  1.5638658986377E+00
   123  1.2200000000000E+00  8.2788355047211E-01  1.6086336951470E+00
   124  1.2300000000000E+00  9.1415132922452E-01  1.6451284299522E+00
   125  1.2400000000000E+00  9.9375993429450E-01  1.6725546624534E+00
   126  1.2500000000000E+00  1.0658967956788E+00  1.6902201789999E+00
   127  1.2600000000000E+00  1.1298281743960E+00  1.6975476365101E+00
   128  1.2700000000000E+00  1.1849101986649E+00  1.6940846638251E+00
   129  1.2800000000000E+00  1.2305986815908E+00  1.6795122449990E+00
   130  1.2900000000000E+00  1.2664575529231E+00  1.6536512334392E+00
   131  1.3000000000000E+00  1.2921657583034E+00  1.6164668732859E+00
   132  1.3100000000000E+00  1.3075225028726E+00  1.5680712341294E+00
   133  1.3200000000000E+00  1.3124507418744E+00  1.5087234967687E+00
   134  1.3300000000000E+00  1.3069988486380E+00  1.4388280608155E+00
   135  1.3400000000000E+00  1.2913404193967E+00  1.3589304787719E+00
   136  1.3500000000000E+00  1.2657722043763E+00  1.2697112553205E+00
   137  1.3600000000000E+00  1.2307101851964E+00  1.1719775846360E+00
   138  1.3700000000000E+00  1.1866838489767E+00  1.0666531316117E+00
   139  1.3800000000000E+00  1.1343287394117E+00  9.5476599474245E-01
   140  1.3900000000000E+00  1.0743773937261E+00  8.3743501828389E-01
   141  1.4000000000000E+00  1.0076488016277E+00  7.1585464895626E-01
   142  1.4100000000000E+00  9.3503654737675E-01  5.9127855713679E-01
   143  1.4200000000000E+00  8.5749581859527E-01  4.6500226391033E-01
   144  1.4300000000000E+00  7.7602948506392E-01  3.3834503314538E-01
   145  1.4400000000000E+00  6.9167346701453E-01  2.1263130151789E-01
   146  1.4500000000000E+00  6.0548162522536E-01  8.9171929004597E-02
   147  1.4600000000000E+00  5.1851041409134E-01 -3.0754442556419E-02
   148  1.4700000000000E+00  4.3180354376907E-01 -1.4591963467011E-01
   149  1.4800000000000E+00  3.4637689830693E-01 -2.5516349702836E-01
   150  1.4900000000000E+00  2.6320395328426E-01 -3.5741051657386E-01
   151  1.5000000000000E+00  1.8320192984066E-01 -4.5168520699861E-01
   152  1.5100000000000E+00  1.0721890451864E-01 -5.3712604322802E-01
   153  1.5200000000000E+00  3.6022125497021E-02 -6.1299764204507E-01
   154  1.5300000000000E+00 -2.9712300834677E-02 -6.7870104257625E-01
   155  1.5400000000000E+00 -8.9408356870578E-02 -7.3378222557909E-01
   156  1.5500000000000E+00 -1.4259745641229E-01 -7.7793854453365E-01
   157  1.5600000000000E+00 -1.8892399479971E-01 -8.1102283017618E-01
   158  1.5700000000000E+00 -2.2814902007522E-01 -8.3304510146005E-01
   159  1.5800000000000E+00 -2.6015197063035E-01 -8.4417185371934E-01
   160  1.5900000000000E+00 -2.8493045695396E-01 -8.4472293215747E-01
   161  1.6000000000000E+00 -3.0259809794759E-01 -8.3516603656172E-01
   162  1.6100000000000E+00 -3.1338045451631E-01 -8.1610893965519E-01
   163  1.6200000000000E+00 -3.1760913509611E-01 -7.8828953741536E-01
   164  1.6300000000000E+00 -3.1571417853056E-01 -7.5256388405344E-01