B     ONCVPSP-4.0.1  r_core=   1.70784   1.45312
      5.0000      3.0000      210704    zatom,zion,pspd
     8      11   1     4   600     0    pspcod,pspxc,lmax,lloc,mmax,r2well
  5.99000000  2.90000000  0.00000000    rchrg fchrg qchrg
     2     2     0     0     0    nproj
     1     1           extension_switch
   0                         1.4122131235353E+01  1.3275769429302E+00
     1  0.0000000000000E+00  3.9808589757939E-10 -6.0196597706508E-10
     2  1.0000000000000E-02  8.5307340346587E-02 -4.4547990035494E-02
     3  2.0000000000000E-02  1.7041523455619E-01 -8.8860142030706E-02
     4  3.0000000000000E-02  2.5512446784561E-01 -1.3270115985609E-01
     5  4.0000000000000E-02  3.3923629357249E-01 -1.7583683767600E-01
     6  5.0000000000000E-02  4.2255268078596E-01 -2.1803462112035E-01
     7  6.0000000000000E-02  5.0487657766636E-01 -2.5906418725058E-01
     8  7.0000000000000E-02  5.8601219567593E-01 -2.9869804886566E-01
     9  8.0000000000000E-02  6.6576531884408E-01 -3.3671218809193E-01
    10  9.0000000000000E-02  7.4394364212336E-01 -3.7288672346410E-01
    11  1.0000000000000E-01  8.2035714218201E-01 -4.0700661384657E-01
    12  1.1000000000000E-01  8.9481848335427E-01 -4.3886240157564E-01
    13  1.2000000000000E-01  9.6714346075905E-01 -4.6825099613998E-01
    14  1.3000000000000E-01  1.0371514818310E+00 -4.9497649857464E-01
    15  1.4000000000000E-01  1.1046660866962E+00 -5.1885106553993E-01
    16  1.5000000000000E-01  1.1695155069803E+00 -5.3969581081066E-01
    17  1.6000000000000E-01  1.2315332617670E+00 -5.5734174063133E-01
    18  1.7000000000000E-01  1.2905587885516E+00 -5.7163071812058E-01
    19  1.8000000000000E-01  1.3464381061575E+00 -5.8241645065269E-01
    20  1.9000000000000E-01  1.3990245057278E+00 -5.8956549292721E-01
    21  2.0000000000000E-01  1.4481792650737E+00 -5.9295825727853E-01
    22  2.1000000000000E-01  1.4937723808742E+00 -5.9249002169719E-01
    23  2.2000000000000E-01  1.5356833124859E+00 -5.8807192505184E-01
    24  2.3000000000000E-01  1.5738017304499E+00 -5.7963193813350E-01
    25  2.4000000000000E-01  1.6080282621898E+00 -5.6711579841002E-01
    26  2.5000000000000E-01  1.6382752268820E+00 -5.5048789579229E-01
    27  2.6000000000000E-01  1.6644673510655E+00 -5.2973209629066E-01
    28  2.7000000000000E-01  1.6865424562430E+00 -5.0485249018907E-01
    29  2.8000000000000E-01  1.7044521095224E+00 -4.7587405129978E-01
    30  2.9000000000000E-01  1.7181622282536E+00 -4.4284319398525E-01
    31  3.0000000000000E-01  1.7276536296467E+00 -4.0582821495596E-01
    32  3.1000000000000E-01  1.7329225165030E+00 -3.6491960737306E-01
    33  3.2000000000000E-01  1.7339808904612E+00 -3.2023023550348E-01
    34  3.3000000000000E-01  1.7308568845515E+00 -2.7189535909044E-01
    35  3.4000000000000E-01  1.7235950073621E+00 -2.2007249770926E-01
    36  3.5000000000000E-01  1.7122562917448E+00 -1.6494112666565E-01
    37  3.6000000000000E-01  1.6969183417272E+00 -1.0670219745786E-01
    38  3.7000000000000E-01  1.6776752721342E+00 -4.5577477443059E-02
    39  3.8000000000000E-01  1.6546375363594E+00  1.8191294884011E-02
    40  3.9000000000000E-01  1.6279316387511E+00  8.4343440701433E-02
    41  4.0000000000000E-01  1.5976997291707E+00  1.5260055745867E-01
    42  4.1000000000000E-01  1.5640990784498E+00  2.2266791887805E-01
    43  4.2000000000000E-01  1.5273014346828E+00  2.9423605382271E-01
    44  4.3000000000000E-01  1.4874922615461E+00  3.6698249730661E-01
    45  4.4000000000000E-01  1.4448698611133E+00  4.4057370471787E-01
    46  4.5000000000000E-01  1.3996443849210E+00  5.1466711813524E-01
    47  4.6000000000000E-01  1.3520367383242E+00  5.8891337146296E-01
    48  4.7000000000000E-01  1.3022773844408E+00  6.6295861901836E-01
    49  4.8000000000000E-01  1.2506050552131E+00  7.3644697020584E-01
    50  4.9000000000000E-01  1.1972653782910E+00  8.0902301102523E-01
    51  5.0000000000000E-01  1.1425094295558E+00  8.8033439141500E-01
    52  5.1000000000000E-01  1.0865922221387E+00  9.5003445584796E-01
    53  5.2000000000000E-01  1.0297711437338E+00  1.0177848931974E+00
    54  5.3000000000000E-01  9.7230435484732E-01  1.0832583806954E+00
    55  5.4000000000000E-01  9.1444916135479E-01  1.1461411958327E+00
    56  5.5000000000000E-01  8.5646037534103E-01  1.2061357693130E+00
    57  5.6000000000000E-01  7.9858867867426E-01  1.2629631516878E+00
    58  5.7000000000000E-01  7.4107900409854E-01  1.3163653660747E+00
    59  5.8000000000000E-01  6.8416894882016E-01  1.3661076194036E+00
    60  5.9000000000000E-01  6.2808723560736E-01  1.4119803449489E+00
    61  6.0000000000000E-01  5.7305223631402E-01  1.4538010494986E+00
    62  6.1000000000000E-01  5.1927057248202E-01  1.4914159393688E+00
    63  6.2000000000000E-01  4.6693580726874E-01  1.5247013006010E+00
    64  6.3000000000000E-01  4.1622724239333E-01  1.5535646100717E+00
    65  6.4000000000000E-01  3.6730883310021E-01  1.5779453558754E+00
    66  6.5000000000000E-01  3.2032823330667E-01  1.5978155472225E+00
    67  6.6000000000000E-01  2.7541598214222E-01  1.6131798961825E+00
    68  6.7000000000000E-01  2.3268484200909E-01  1.6240756558999E+00
    69  6.8000000000000E-01  1.9222929710408E-01  1.6305721023892E+00
    70  6.9000000000000E-01  1.5412522005827E-01  1.6327696496459E+00
    71  7.0000000000000E-01  1.1842971297817E-01  1.6307985905852E+00
    72  7.1000000000000E-01  8.5181127730703E-02  1.6248174591962E+00
    73  7.2000000000000E-01  5.4399268810737E-02  1.6150110122628E+00
    74  7.3000000000000E-01  2.6085780587124E-02  1.6015878320182E+00
    75  7.4000000000000E-01  2.2471914585368E-04  1.5847775541466E+00
    76  7.5000000000000E-01 -2.3216692637892E-02  1.5648277285904E+00
    77  7.6000000000000E-01 -4.4287129757237E-02  1.5420003236388E+00
    78  7.7000000000000E-01 -6.3050053992114E-02  1.5165678867396E+00
    79  7.8000000000000E-01 -7.9582433165081E-02  1.4888093783597E+00
    80  7.9000000000000E-01 -9.3973298312805E-02  1.4590056980009E+00
    81  8.0000000000000E-01 -1.0632214779696E-01  1.4274349241299E+00
    82  8.1000000000000E-01 -1.1673720875749E-01  1.3943672922867E+00
    83  8.2000000000000E-01 -1.2533356760872E-01  1.3600599379700E+00
    84  8.3000000000000E-01 -1.3223118248931E-01  1.3247514330457E+00
    85  8.4000000000000E-01 -1.3755279168832E-01  1.2886561463781E+00
    86  8.5000000000000E-01 -1.4142173307339E-01  1.2519584611083E+00
    87  8.6000000000000E-01 -1.4395969044041E-01  1.2148068825202E+00
    88  8.7000000000000E-01 -1.4528438347724E-01  1.1773080717049E+00
    89  8.8000000000000E-01 -1.4550721868524E-01  1.1395208412718E+00
    90  8.9000000000000E-01 -1.4473091903201E-01  1.1014501488512E+00
    91  9.0000000000000E-01 -1.4304715207193E-01  1.0630411468527E+00
    92  9.1000000000000E-01 -1.4053457115750E-01  1.0241791032687E+00
    93  9.2000000000000E-01 -1.3726240781380E-01  9.8475838515313E-01
    94  9.3000000000000E-01 -1.3329780177667E-01  9.4475726581010E-01
    95  9.4000000000000E-01 -1.2870896652176E-01  9.0423320916614E-01
    96  9.5000000000000E-01 -1.2356650060616E-01  8.6330535095175E-01
    97  9.6000000000000E-01 -1.1794358078373E-01  8.2213608936136E-01
    98  9.7000000000000E-01 -1.1191539705814E-01  7.8091418651212E-01
    99  9.8000000000000E-01 -1.0555815972879E-01  7.3984061622263E-01
   100  9.9000000000000E-01 -9.8947936860359E-02  6.9911755140695E-01
   101  1.0000000000000E+00 -9.2159499319231E-02  6.5894034575673E-01
   102  1.0100000000000E+00 -8.5265278876998E-02  6.1949208437681E-01
   103  1.0200000000000E+00 -7.8334490699140E-02  5.8094018237879E-01
   104  1.0300000000000E+00 -7.1432435089616E-02  5.4343452510159E-01
   105  1.0400000000000E+00 -6.4619971716462E-02  5.0710671393944E-01
   106  1.0500000000000E+00 -5.7953148440205E-02  4.7207006984012E-01
   107  1.0600000000000E+00 -5.1482962778025E-02  4.3842013273540E-01
   108  1.0700000000000E+00 -4.5255233850910E-02  4.0623546804121E-01
   109  1.0800000000000E+00 -3.9310564581469E-02  3.7557864955488E-01
   110  1.0900000000000E+00 -3.3684376519086E-02  3.4649733080887E-01
   111  1.1000000000000E+00 -2.8407002425799E-02  3.1902534780569E-01
   112  1.1100000000000E+00 -2.3503824188924E-02  2.9318381679546E-01
   113  1.1200000000000E+00 -1.8995445740881E-02  2.6898220479108E-01
   114  1.1300000000000E+00 -1.4897892374879E-02  2.4641935936900E-01
   115  1.1400000000000E+00 -1.1222829214780E-02  2.2548448977589E-01
   116  1.1500000000000E+00 -7.9777927835500E-03  2.0615809507988E-01
   117  1.1600000000000E+00 -5.1664304852783E-03  1.8841283681326E-01
   118  1.1700000000000E+00 -2.7887437065312E-03  1.7221435535118E-01
   119  1.1800000000000E+00 -8.4133086292679E-04  1.5752202969380E-01
   120  1.1900000000000E+00  6.8237257059770E-04  1.4428968138771E-01
   121  1.2000000000000E+00  1.7918594697953E-03  1.3246622362615E-01
   122  1.2100000000000E+00  2.4993237886063E-03  1.2199625709214E-01
   123  1.2200000000000E+00  2.8194419382303E-03  1.1282061477337E-01
   124  1.2300000000000E+00  2.7691637475875E-03  1.0487685809327E-01
   125  1.2400000000000E+00  2.3675134137802E-03  9.8099727559467E-02
   126  1.2500000000000E+00  1.6354005340382E-03  9.2421551105422E-02
   127  1.2600000000000E+00  5.9544087061725E-04  8.7772614051288E-02
   128  1.2700000000000E+00 -7.2821379005246E-04  8.4081494732533E-02
   129  1.2800000000000E+00 -2.3100376109951E-03  8.1275370118828E-02
   130  1.2900000000000E+00 -4.1232857352955E-03  7.9280296203867E-02
   131  1.3000000000000E+00 -6.1401437469271E-03  7.8021467800109E-02
   132  1.3100000000000E+00 -8.3318731735753E-03  7.7423462822733E-02
   133  1.3200000000000E+00 -1.0668954726246E-02  7.7410475960232E-02
   134  1.3300000000000E+00 -1.3121231091777E-02  7.7906546769668E-02
   135  1.3400000000000E+00 -1.5658051139166E-02  7.8835787132999E-02
   136  1.3500000000000E+00 -1.8248417418727E-02  8.0122612907689E-02
   137  1.3600000000000E+00 -2.0861138790000E-02  8.1691984328829E-02
   138  1.3700000000000E+00 -2.3464989998808E-02  8.3469659699173E-02
   139  1.3800000000000E+00 -2.6028879858897E-02  8.5382466267392E-02
   140  1.3900000000000E+00 -2.8522029636533E-02  8.7358592193933E-02
   141  1.4000000000000E+00 -3.0914163019097E-02  8.9327902821395E-02
   142  1.4100000000000E+00 -3.3175708885125E-02  9.1222284137249E-02
   143  1.4200000000000E+00 -3.5278017866396E-02  9.2976015764647E-02
   144  1.4300000000000E+00 -3.7193593475987E-02  9.4526175383804E-02
   145  1.4400000000000E+00 -3.8896338263364E-02  9.5813075643940E-02
   146  1.4500000000000E+00 -4.0361815263865E-02  9.6780734424873E-02
   147  1.4600000000000E+00 -4.1567524647841E-02  9.7377378309328E-02
   148  1.4700000000000E+00 -4.2493195228298E-02  9.7555978727175E-02
   149  1.4800000000000E+00 -4.3121090179300E-02  9.7274819553856E-02
   150  1.4900000000000E+00 -4.3436326022053E-02  9.6498094315144E-02
   151  1.5000000000000E+00 -4.3427203630480E-02  9.5196530461159E-02
   152  1.5100000000000E+00 -4.3085549772483E-02  9.3348037804589E-02
   153  1.5200000000000E+00 -4.2407067390092E-02  9.0938377426348E-02
   154  1.5300000000000E+00 -4.1391692595958E-02  8.7961846935875E-02
   155  1.5400000000000E+00 -4.0043956161028E-02  8.4421977627608E-02
   156  1.5500000000000E+00 -3.8373347016128E-02  8.0332238386794E-02
   157  1.5600000000000E+00 -3.6394675172562E-02  7.5716741121063E-02
   158  1.5700000000000E+00 -3.4128431292245E-02  7.0610942027264E-02
   159  1.5800000000000E+00 -3.1601140049493E-02  6.5062332878604E-02
   160  1.5900000000000E+00 -2.8845703042095E-02  5.9131113710331E-02
   161  1.6000000000000E+00 -2.5901746299854E-02  5.2890876394446E-02
   162  1.6100000000000E+00 -2.2815880806699E-02  4.6429117968787E-02
   163  1.6200000000000E+00 -1.9642093528703E-02  3.9848015864851E-02
   164  1.6300000000000E+00 -1.6448894691702E-02  3.3278478399384E-02
   165  1.6400000000000E+00 -1.3315469738233E-02  2.6872496618186E-02
   166  1.6500000000000E+00 -1.0307245442120E-02  2.0755145465774E-02
   167  1.6600000000000E+00 -7.5015711314113E-03  1.5075235768877E-02
   168  1.6700000000000E+00 -4.9874440754716E-03  1.0004755756768E-02
   169  1.6800000000000E+00 -2.8660933816577E-03  5.7400283862943E-03
   170  1.6900000000000E+00 -1.2429792820314E-03  2.4857573431302E-03
   171  1.7000000000000E+00 -2.6479197545101E-04  5.2883136528748E-04
   172  1.7100000000000E+00  1.8849823402863E-05 -3.7613032580925E-05
   173  1.7200000000000E+00 -4.3596534464160E-06  8.7024355561243E-06
   174  1.73  0. -0.
   175  1.74 -0.  0.
   176  1.75  0.  0.
   177  1.76  0.  0.
   178  1.77  0.  0.
   179  1.78  0.  0.
   180  1.79  0.  0.
   181  1.80  0.  0.
   182  1.81  0.  0.
   183  1.82  0.  0.
   184  1.83  0.  0.
   185  1.84  0.  0.
   186  1.85  0.  0.
   187  1.86  0.  0.
   188  1.87  0.  0.
   189  1.88  0.  0.
   190  1.89  0.  0.
   191  1.90  0.  0.
   192  1.91  0.  0.
   193  1.92  0.  0.
   194  1.93  0.  0.
   195  1.94  0.  0.
   196  1.95  0.  0.
   197  1.96  0.  0.
   198  1.97  0.  0.
   199  1.98  0.  0.
   200  1.99  0.  0.
   201  2.00  0.  0.
   202  2.01  0.  0.
   203  2.02  0.  0.
   204  2.03  0.  0.
   205  2.04  0.  0.
   206  2.05  0.  0.
   207  2.06  0.  0.
   208  2.07  0.  0.
   209  2.08  0.  0.
   210  2.09  0.  0.
   211  2.10  0.  0.
   212  2.11  0.  0.
   213  2.12  0.  0.
   214  2.13  0.  0.
   215  2.14  0.  0.
   216  2.15  0.  0.
   217  2.16  0.  0.
   218  2.17  0.  0.
   219  2.18  0.  0.
   220  2.19  0.  0.
   221  2.20  0.  0.
   222  2.21  0.  0.
   223  2.22  0.  0.
   224  2.23  0.  0.
   225  2.24  0.  0.
   226  2.25  0.  0.
   227  2.26  0.  0.
   228  2.27  0.  0.
   229  2.28  0.  0.
   230  2.29  0.  0.
   231  2.30  0.  0.
   232  2.31  0.  0.
   233  2.32  0.  0.
   234  2.33  0.  0.
   235  2.34  0.  0.
   236  2.35  0.  0.
   237  2.36  0.  0.
   238  2.37  0.  0.
   239  2.38  0.  0.
   240  2.39  0.  0.
   241  2.40  0.  0.
   242  2.41  0.  0.
   243  2.42  0.  0.
   244  2.43  0.  0.
   245  2.44  0.  0.
   246  2.45  0.  0.
   247  2.46  0.  0.
   248  2.47  0.  0.
   249  2.48  0.  0.
   250  2.49  0.  0.
   251  2.50  0.  0.
   252  2.51  0.  0.
   253  2.52  0.  0.
   254  2.53  0.  0.
   255  2.54  0.  0.
   256  2.55  0.  0.
   257  2.56  0.  0.
   258  2.57  0.  0.
   259  2.58  0.  0.
   260  2.59  0.  0.
   261  2.60  0.  0.
   262  2.61  0.  0.
   263  2.62  0.  0.
   264  2.63  0.  0.
   265  2.64  0.  0.
   266  2.65  0.  0.
   267  2.66  0.  0.
   268  2.67  0.  0.
   269  2.68  0.  0.
   270  2.69  0.  0.
   271  2.70  0.  0.
   272  2.71  0.  0.
   273  2.72  0.  0.
   274  2.73  0.  0.
   275  2.74  0.  0.
   276  2.75  0.  0.
   277  2.76  0.  0.
   278  2.77  0.  0.
   279  2.78  0.  0.
   280  2.79  0.  0.
   281  2.80  0.  0.
   282  2.81  0.  0.
   283  2.82  0.  0.
   284  2.83  0.  0.
   285  2.84  0.  0.
   286  2.85  0.  0.
   287  2.86  0.  0.
   288  2.87  0.  0.
   289  2.88  0.  0.
   290  2.89  0.  0.
   291  2.90  0.  0.
   292  2.91  0.  0.
   293  2.92  0.  0.
   294  2.93  0.  0.
   295  2.94  0.  0.
   296  2.95  0.  0.
   297  2.96  0.  0.
   298  2.97  0.  0.
   299  2.98  0.  0.
   300  2.99  0.  0.
   301  3.00  0.  0.
   302  3.01  0.  0.
   303  3.02  0.  0.
   304  3.03  0.  0.
   305  3.04  0.  0.
   306  3.05  0.  0.
   307  3.06  0.  0.
   308  3.07  0.  0.
   309  3.08  0.  0.
   310  3.09  0.  0.
   311  3.10  0.  0.
   312  3.11  0.  0.
   313  3.12  0.  0.
   314  3.13  0.  0.
   315  3.14  0.  0.
   316  3.15  0.  0.
   317  3.16  0.  0.
   318  3.17  0.  0.
   319  3.18  0.  0.
   320  3.19  0.  0.
   321  3.20  0.  0.
   322  3.21  0.  0.
   323  3.22  0.  0.
   324  3.23  0.  0.
   325  3.24  0.  0.
   326  3.25  0.  0.
   327  3.26  0.  0.
   328  3.27  0.  0.
   329  3.28  0.  0.
   330  3.29  0.  0.
   331  3.30  0.  0.
   332  3.31  0.  0.
   333  3.32  0.  0.
   334  3.33  0.  0.
   335  3.34  0.  0.
   336  3.35  0.  0.
   337  3.36  0.  0.
   338  3.37  0.  0.
   339  3.38  0.  0.
   340  3.39  0.  0.
   341  3.40  0.  0.
   342  3.41  0.  0.
   343  3.42  0.  0.
   344  3.43  0.  0.
   345  3.44  0.  0.
   346  3.45  0.  0.
   347  3.46  0.  0.
   348  3.47  0.  0.
   349  3.48  0.  0.
   350  3.49  0.  0.
   351  3.50  0.  0.
   352  3.51  0.  0.
   353  3.52  0.  0.
   354  3.53  0.  0.
   355  3.54  0.  0.
   356  3.55  0.  0.
   357  3.56  0.  0.
   358  3.57  0.  0.
   359  3.58  0.  0.
   360  3.59  0.  0.
   361  3.60  0.  0.
   362  3.61  0.  0.
   363  3.62  0.  0.
   364  3.63  0.  0.
   365  3.64  0.  0.
   366  3.65  0.  0.
   367  3.66  0.  0.
   368  3.67  0.  0.
   369  3.68  0.  0.
   370  3.69  0.  0.
   371  3.70  0.  0.
   372  3.71  0.  0.
   373  3.72  0.  0.
   374  3.73  0.  0.
   375  3.74  0.  0.
   376  3.75  0.  0.
   377  3.76  0.  0.
   378  3.77  0.  0.
   379  3.78  0.  0.
   380  3.79  0.  0.
   381  3.80  0.  0.
   382  3.81  0.  0.
   383  3.82  0.  0.
   384  3.83  0.  0.
   385  3.84  0.  0.
   386  3.85  0.  0.
   387  3.86  0.  0.
   388  3.87  0.  0.
   389  3.88  0.  0.
   390  3.89  0.  0.
   391  3.90  0.  0.
   392  3.91  0.  0.
   393  3.92  0.  0.
   394  3.93  0.  0.
   395  3.94  0.  0.
   396  3.95  0.  0.
   397  3.96  0.  0.
   398  3.97  0.  0.
   399  3.98  0.  0.
   400  3.99  0.  0.
   401  4.00  0.  0.
   402  4.01  0.  0.
   403  4.02  0.  0.
   404  4.03  0.  0.
   405  4.04  0.  0.
   406  4.05  0.  0.
   407  4.06  0.  0.
   408  4.07  0.  0.
   409  4.08  0.  0.
   410  4.09  0.  0.
   411  4.10  0.  0.
   412  4.11  0.  0.
   413  4.12  0.  0.
   414  4.13  0.  0.
   415  4.14  0.  0.
   416  4.15  0.  0.
   417  4.16  0.  0.
   418  4.17  0.  0.
   419  4.18  0.  0.
   420  4.19  0.  0.
   421  4.20  0.  0.
   422  4.21  0.  0.
   423  4.22  0.  0.
   424  4.23  0.  0.
   425  4.24  0.  0.
   426  4.25  0.  0.
   427  4.26  0.  0.
   428  4.27  0.  0.
   429  4.28  0.  0.
   430  4.29  0.  0.
   431  4.30  0.  0.
   432  4.31  0.  0.
   433  4.32  0.  0.
   434  4.33  0.  0.
   435  4.34  0.  0.
   436  4.35  0.  0.
   437  4.36  0.  0.
   438  4.37  0.  0.
   439  4.38  0.  0.
   440  4.39  0.  0.
   441  4.40  0.  0.
   442  4.41  0.  0.
   443  4.42  0.  0.
   444  4.43  0.  0.
   445  4.44  0.  0.
   446  4.45  0.  0.
   447  4.46  0.  0.
   448  4.47  0.  0.
   449  4.48  0.  0.
   450  4.49  0.  0.
   451  4.50  0.  0.
   452  4.51  0.  0.
   453  4.52  0.  0.
   454  4.53  0.  0.
   455  4.54  0.  0.
   456  4.55  0.  0.
   457  4.56  0.  0.
   458  4.57  0.  0.
   459  4.58  0.  0.
   460  4.59  0.  0.
   461  4.60  0.  0.
   462  4.61  0.  0.
   463  4.62  0.  0.
   464  4.63  0.  0.
   465  4.64  0.  0.
   466  4.65  0.  0.
   467  4.66  0.  0.
   468  4.67  0.  0.
   469  4.68  0.  0.
   470  4.69  0.  0.
   471  4.70  0.  0.
   472  4.71  0.  0.
   473  4.72  0.  0.
   474  4.73  0.  0.
   475  4.74  0.  0.
   476  4.75  0.  0.
   477  4.76  0.  0.
   478  4.77  0.  0.
   479  4.78  0.  0.
   480  4.79  0.  0.
   481  4.80  0.  0.
   482  4.81  0.  0.
   483  4.82  0.  0.
   484  4.83  0.  0.
   485  4.84  0.  0.
   486  4.85  0.  0.
   487  4.86  0.  0.
   488  4.87  0.  0.
   489  4.88  0.  0.
   490  4.89  0.  0.
   491  4.90  0.  0.
   492  4.91  0.  0.
   493  4.92  0.  0.
   494  4.93  0.  0.
   495  4.94  0.  0.
   496  4.95  0.  0.
   497  4.96  0.  0.
   498  4.97  0.  0.
   499  4.98  0.  0.
   500  4.99  0.  0.
   501  5.00  0.  0.
   502  5.01  0.  0.
   503  5.02  0.  0.
   504  5.03  0.  0.
   505  5.04  0.  0.
   506  5.05  0.  0.
   507  5.06  0.  0.
   508  5.07  0.  0.
   509  5.08  0.  0.
   510  5.09  0.  0.
   511  5.10  0.  0.
   512  5.11  0.  0.
   513  5.12  0.  0.
   514  5.13  0.  0.
   515  5.14  0.  0.
   516  5.15  0.  0.
   517  5.16  0.  0.
   518  5.17  0.  0.
   519  5.18  0.  0.
   520  5.19  0.  0.
   521  5.20  0.  0.
   522  5.21  0.  0.
   523  5.22  0.  0.
   524  5.23  0.  0.
   525  5.24  0.  0.
   526  5.25  0.  0.
   527  5.26  0.  0.
   528  5.27  0.  0.
   529  5.28  0.  0.
   530  5.29  0.  0.
   531  5.30  0.  0.
   532  5.31  0.  0.
   533  5.32  0.  0.
   534  5.33  0.  0.
   535  5.34  0.  0.
   536  5.35  0.  0.
   537  5.36  0.  0.
   538  5.37  0.  0.
   539  5.38  0.  0.
   540  5.39  0.  0.
   541  5.40  0.  0.
   542  5.41  0.  0.
   543  5.42  0.  0.
   544  5.43  0.  0.
   545  5.44  0.  0.
   546  5.45  0.  0.
   547  5.46  0.  0.
   548  5.47  0.  0.
   549  5.48  0.  0.
   550  5.49  0.  0.
   551  5.50  0.  0.
   552  5.51  0.  0.
   553  5.52  0.  0.
   554  5.53  0.  0.
   555  5.54  0.  0.
   556  5.55  0.  0.
   557  5.56  0.  0.
   558  5.57  0.  0.
   559  5.58  0.  0.
   560  5.59  0.  0.
   561  5.60  0.  0.
   562  5.61  0.  0.
   563  5.62  0.  0.
   564  5.63  0.  0.
   565  5.64  0.  0.
   566  5.65  0.  0.
   567  5.66  0.  0.
   568  5.67  0.  0.
   569  5.68  0.  0.
   570  5.69  0.  0.
   571  5.70  0.  0.
   572  5.71  0.  0.
   573  5.72  0.  0.
   574  5.73  0.  0.
   575  5.74  0.  0.
   576  5.75  0.  0.
   577  5.76  0.  0.
   578  5.77  0.  0.
   579  5.78  0.  0.
   580  5.79  0.  0.
   581  5.80  0.  0.
   582  5.81  0.  0.
   583  5.82  0.  0.
   584  5.83  0.  0.
   585  5.84  0.  0.
   586  5.85  0.  0.
   587  5.86  0.  0.
   588  5.87  0.  0.
   589  5.88  0.  0.
   590  5.89  0.  0.
   591  5.90  0.  0.
   592  5.91  0.  0.
   593  5.92  0.  0.
   594  5.93  0.  0.
   595  5.94  0.  0.
   596  5.95  0.  0.
   597  5.96  0.  0.
   598  5.97  0.  0.
   599  5.98  0.  0.
   600  5.99  0.  0.
   1                        -1.6182962123755E+00 -5.9575980913673E-01
     1  0.0000000000000E+00  2.0805285619319E-09 -3.7258881535607E-09
     2  1.0000000000000E-02  9.4190833238850E-04 -1.3429867875665E-03
     3  2.0000000000000E-02  3.7659661265307E-03 -5.3583460806105E-03
     4  3.0000000000000E-02  8.4672058565419E-03 -1.2005421178499E-02
     5  4.0000000000000E-02  1.5037460654310E-02 -2.1216937133974E-02
     6  5.0000000000000E-02  2.3465528411401E-02 -3.2899722627448E-02
     7  6.0000000000000E-02  3.3737392804292E-02 -4.6935705804592E-02
     8  7.0000000000000E-02  4.5836492767762E-02 -6.3183169584425E-02
     9  8.0000000000000E-02  5.9744029860734E-02 -8.1478248219233E-02
    10  9.0000000000000E-02  7.5439301135367E-02 -1.0163664346234E-01
    11  1.0000000000000E-01  9.2900043580355E-02 -1.2345553563462E-01
    12  1.1000000000000E-01  1.1210277500371E-01 -1.4671566222570E-01
    13  1.2000000000000E-01  1.3302311538230E-01 -1.7118353446614E-01
    14  1.3000000000000E-01  1.5563607226477E-01 -1.9661376060078E-01
    15  1.4000000000000E-01  1.7991627378997E-01 -2.2275144341003E-01
    16  1.5000000000000E-01  2.0583813328874E-01 -2.4933461888689E-01
    17  1.6000000000000E-01  2.3337593027636E-01 -2.7609670289422E-01
    18  1.7000000000000E-01  2.6250379391265E-01 -3.0276891310333E-01
    19  1.8000000000000E-01  2.9319557669457E-01 -3.2908263454417E-01
    20  1.9000000000000E-01  3.2542460822997E-01 -3.5477169866353E-01
    21  2.0000000000000E-01  3.5916332139260E-01 -3.7957454786557E-01
    22  2.1000000000000E-01  3.9438274593941E-01 -4.0323626006459E-01
    23  2.2000000000000E-01  4.3105186773652E-01 -4.2551041077063E-01
    24  2.3000000000000E-01  4.6913685503788E-01 -4.4616075360236E-01
    25  2.4000000000000E-01  5.0860015673185E-01 -4.6496270382256E-01
    26  2.5000000000000E-01  5.4939948105176E-01 -4.8170461345246E-01
    27  2.6000000000000E-01  5.9148666686836E-01 -4.9618883067412E-01
    28  2.7000000000000E-01  6.3480646327325E-01 -5.0823254049888E-01
    29  2.8000000000000E-01  6.7929523664818E-01 -5.1766838798777E-01
    30  2.9000000000000E-01  7.2487962772135E-01 -5.2434488957662E-01
    31  3.0000000000000E-01  7.7147518416246E-01 -5.2812664220366E-01
    32  3.1000000000000E-01  8.1898499699197E-01 -5.2889434388153E-01
    33  3.2000000000000E-01  8.6729837140514E-01 -5.2654464302101E-01
    34  3.3000000000000E-01  9.1628956447415E-01 -5.2098983712608E-01
    35  3.4000000000000E-01  9.6581662353154E-01 -5.1215744437050E-01
    36  3.5000000000000E-01  1.0157203598035E+00 -4.9998967397190E-01
    37  3.6000000000000E-01  1.0658234920074E+00 -4.8444282314449E-01
    38  3.7000000000000E-01  1.1159299941230E+00 -4.6548662969018E-01
    39  3.8000000000000E-01  1.1658246803608E+00 -4.4310360994215E-01
    40  3.9000000000000E-01  1.2152730584801E+00 -4.1728841177829E-01
    41  4.0000000000000E-01  1.2640214800453E+00 -3.8804721176050E-01
    42  4.1000000000000E-01  1.3117976129671E+00 -3.5539718412430E-01
    43  4.2000000000000E-01  1.3583112577824E+00 -3.1936606735229E-01
    44  4.3000000000000E-01  1.4032555246135E+00 -2.7999185143486E-01
    45  4.4000000000000E-01  1.4463083826706E+00 -2.3732260568625E-01
    46  4.5000000000000E-01  1.4871345885826E+00 -1.9141646318854E-01
    47  4.6000000000000E-01  1.5253879938251E+00 -1.4234177363829E-01
    48  4.7000000000000E-01  1.5607142251577E+00 -9.0177431636101E-02
    49  4.8000000000000E-01  1.5927537253714E+00 -3.5013382367659E-02
    50  4.9000000000000E-01  1.6211451348766E+00  2.3048698740549E-02
    51  5.0000000000000E-01  1.6455289878584E+00  8.3894561352736E-02
    52  5.1000000000000E-01  1.6655516899789E+00  1.4739638513178E-01
    53  5.2000000000000E-01  1.6808697380462E+00  2.1341165442021E-01
    54  5.3000000000000E-01  1.6911541358099E+00  2.8178192837451E-01
    55  5.4000000000000E-01  1.6960949541907E+00  3.5233153748864E-01
    56  5.5000000000000E-01  1.6954059789262E+00  4.2486624236918E-01
    57  5.6000000000000E-01  1.6888293839167E+00  4.9917189512203E-01
    58  5.7000000000000E-01  1.6761403645843E+00  5.7501314768938E-01
    59  5.8000000000000E-01  1.6571516623981E+00  6.5213225484740E-01
    60  5.9000000000000E-01  1.6317179094521E+00  7.3024802226927E-01
    61  6.0000000000000E-01  1.5997397206659E+00  8.0905495200645E-01
    62  6.1000000000000E-01  1.5611674608588E+00  8.8822263889490E-01
    63  6.2000000000000E-01  1.5160046146668E+00  9.6739547171506E-01
    64  6.3000000000000E-01  1.4643106890263E+00  1.0461926923991E+00
    65  6.4000000000000E-01  1.4062035807498E+00  1.1242088651849E+00
    66  6.5000000000000E-01  1.3418613455322E+00  1.2010148053671E+00
    67  6.6000000000000E-01  1.2715233095220E+00  1.2761590142209E+00
    68  6.7000000000000E-01  1.1954904702931E+00  1.3491696628159E+00
    69  6.8000000000000E-01  1.1141251406060E+00  1.4195571628484E+00
    70  6.9000000000000E-01  1.0278497956293E+00  1.4868173573805E+00
    71  7.0000000000000E-01  9.3714509222287E-01  1.5504353585634E+00
    72  7.1000000000000E-01  8.4254703731575E-01  1.6098900531416E+00
    73  7.2000000000000E-01  7.4464329122488E-01  1.6646592898932E+00
    74  7.3000000000000E-01  6.4406860080446E-01  1.7142257562772E+00
    75  7.4000000000000E-01  5.4149936643914E-01  1.7580835445559E+00
    76  7.5000000000000E-01  4.3764735594478E-01  1.7957454006667E+00
    77  7.6000000000000E-01  3.3325258725650E-01  1.8267506422660E+00
    78  7.7000000000000E-01  2.2907541021499E-01  1.8506737257878E+00
    79  7.8000000000000E-01  1.2588782565313E-01  1.8671334361706E+00
    80  7.9000000000000E-01  2.4464087195145E-02  1.8758026672443E+00
    81  8.0000000000000E-01 -7.4429362425195E-02  1.8764187557266E+00
    82  8.1000000000000E-01 -1.7004456326159E-01  1.8687943274735E+00
    83  8.2000000000000E-01 -2.6166325658329E-01  1.8528286111409E+00
    84  8.3000000000000E-01 -3.4860858485948E-01  1.8285191718183E+00
    85  8.4000000000000E-01 -4.3025720622973E-01  1.7959740155530E+00
    86  8.5000000000000E-01 -5.0605175553635E-01  1.7554240150244E+00
    87  8.6000000000000E-01 -5.7551358440607E-01  1.7072356069823E+00
    88  8.7000000000000E-01 -6.3825571454590E-01  1.6519237134241E+00
    89  8.8000000000000E-01 -6.9399594133857E-01  1.5901648408357E+00
    90  8.9000000000000E-01 -7.4257003016515E-01  1.5228103196069E+00
    91  9.0000000000000E-01 -7.8394493260576E-01  1.4508995727687E+00
    92  9.1000000000000E-01 -8.1822667146526E-01  1.3756532194848E+00
    93  9.2000000000000E-01 -8.4560168470409E-01  1.2982292102904E+00
    94  9.3000000000000E-01 -8.6625928280705E-01  1.2194738874482E+00
    95  9.4000000000000E-01 -8.8038116862822E-01  1.1399553275095E+00
    96  9.5000000000000E-01 -8.8814566518334E-01  1.0600354748954E+00
    97  9.6000000000000E-01 -8.8973613894065E-01  9.7993942007847E-01
    98  9.7000000000000E-01 -8.8535077088024E-01  8.9981464861221E-01
    99  9.8000000000000E-01 -8.7521169382995E-01  8.1977732433259E-01
   100  9.9000000000000E-01 -8.5957232138254E-01  7.3994547288085E-01
   101  1.0000000000000E+00 -8.3872234038732E-01  6.6046054431028E-01
   102  1.0100000000000E+00 -8.1299028492364E-01  5.8149952429645E-01
   103  1.0200000000000E+00 -7.8274387410114E-01  5.0327985124443E-01
   104  1.0300000000000E+00 -7.4838842537681E-01  4.2605916074297E-01
   105  1.0400000000000E+00 -7.1036369469983E-01  3.5013150926569E-01
   106  1.0500000000000E+00 -6.6913948428250E-01  2.7582134619676E-01
   107  1.0600000000000E+00 -6.2521032324326E-01  2.0347616257846E-01
   108  1.0700000000000E+00 -5.7908948440796E-01  1.3345847365466E-01
   109  1.0800000000000E+00 -5.3130255938080E-01  6.6137585975111E-02
   110  1.0900000000000E+00 -4.8238077932312E-01  1.8814543612602E-03
   111  1.1000000000000E+00 -4.3285424023588E-01 -5.8951167053034E-02
   112  1.1100000000000E+00 -3.8324516964187E-01 -1.1601814098083E-01
   113  1.1200000000000E+00 -3.3406135405659E-01 -1.6900083455342E-01
   114  1.1300000000000E+00 -2.8578983296970E-01 -2.1761040895427E-01
   115  1.1400000000000E+00 -2.3889095383169E-01 -2.6159345814649E-01
   116  1.1500000000000E+00 -1.9379287203341E-01 -3.0073695553865E-01
   117  1.1600000000000E+00 -1.5088657104456E-01 -3.3487247398484E-01
   118  1.1700000000000E+00 -1.1052146780449E-01 -3.6387965249409E-01
   119  1.1800000000000E+00 -7.3001659684862E-02 -3.8768888768915E-01
   120  1.1900000000000E+00 -3.8582858830890E-02 -4.0628323574317E-01