C     ONCVPSP-4.0.1  r_core=   1.20716   1.25127
      6.0000      4.0000      210705    zatom,zion,pspd
     8      11   1     4   600     0    pspcod,pspxc,lmax,lloc,mmax,r2well
  5.99000000  4.00000000  0.00000000    rchrg fchrg qchrg
     2     2     0     0     0    nproj
     1     1           extension_switch
   0                         6.5968629791179E+00  3.4580879865183E-01
     1  0.0000000000000E+00  4.8582878831027E-09 -3.1443835785128E-08
     2  1.0000000000000E-02  6.6928754483464E-02  3.0129786922787E-02
     3  2.0000000000000E-02  1.3383040197067E-01  5.9422108608520E-02
     4  3.0000000000000E-02  2.0067544749512E-01  8.7058164403606E-02
     5  4.0000000000000E-02  2.6742967955141E-01  1.1225608730824E-01
     6  5.0000000000000E-02  3.3405195904911E-01  1.3428843030551E-01
     7  6.0000000000000E-02  4.0049218137546E-01  1.5249849911958E-01
     8  7.0000000000000E-02  4.6668946341809E-01  1.6631518474483E-01
     9  8.0000000000000E-02  5.3257060254028E-01  1.7526598053156E-01
    10  9.0000000000000E-02  5.9804884862203E-01  1.7898790667743E-01
    11  1.0000000000000E-01  6.6302302350244E-01  1.7723610886704E-01
    12  1.1000000000000E-01  7.2737701462464E-01  1.6988994661456E-01
    13  1.2000000000000E-01  7.9097966155226E-01  1.5695643958082E-01
    14  1.3000000000000E-01  8.5368504546557E-01  1.3857099566282E-01
    15  1.4000000000000E-01  9.1533318293732E-01  1.1499540183307E-01
    16  1.5000000000000E-01  9.7575111641635E-01  8.6613116349615E-02
    17  1.6000000000000E-01  1.0347543850999E+00  5.3921957862668E-02
    18  1.7000000000000E-01  1.0921488514364E+00  1.7524341921850E-02
    19  1.8000000000000E-01  1.1477328505494E+00 -2.1884732709137E-02
    20  1.9000000000000E-01  1.2012996225771E+00 -6.3531697784576E-02
    21  2.0000000000000E-01  1.2526399814395E+00 -1.0658013663774E-01
    22  2.1000000000000E-01  1.3015451680113E+00 -1.5014788334470E-01
    23  2.2000000000000E-01  1.3478098312154E+00 -1.9332514109459E-01
    24  2.3000000000000E-01  1.3912350772610E+00 -2.3519323867029E-01
    25  2.4000000000000E-01  1.4316315251923E+00 -2.7484362969425E-01
    26  2.5000000000000E-01  1.4688223061553E+00 -3.1139673331008E-01
    27  2.6000000000000E-01  1.5026459443355E+00 -3.4402021739741E-01
    28  2.7000000000000E-01  1.5329590593738E+00 -3.7194633622438E-01
    29  2.8000000000000E-01  1.5596388331902E+00 -3.9448795342683E-01
    30  2.9000000000000E-01  1.5825851884858E+00 -4.1105290799046E-01
    31  3.0000000000000E-01  1.6017226316550E+00 -4.2115641496692E-01
    32  3.1000000000000E-01  1.6170017193229E+00 -4.2443123328511E-01
    33  3.2000000000000E-01  1.6284001150960E+00 -4.2063537940039E-01
    34  3.3000000000000E-01  1.6359232112202E+00 -4.0965721670307E-01
    35  3.4000000000000E-01  1.6396042985270E+00 -3.9151780553527E-01
    36  3.5000000000000E-01  1.6395042771225E+00 -3.6637045620388E-01
    37  3.6000000000000E-01  1.6357109095659E+00 -3.3449748633889E-01
    38  3.7000000000000E-01  1.6283376275830E+00 -2.9630424310099E-01
    39  3.8000000000000E-01  1.6175219124914E+00 -2.5231050885962E-01
    40  3.9000000000000E-01  1.6034232782718E+00 -2.0313946482123E-01
    41  4.0000000000000E-01  1.5862208944314E+00 -1.4950443951555E-01
    42  4.1000000000000E-01  1.5661108932912E+00 -9.2193716932223E-02
    43  4.2000000000000E-01  1.5433034129326E+00 -3.2053721425689E-02
    44  4.3000000000000E-01  1.5180194326205E+00  3.0029067638505E-02
    45  4.4000000000000E-01  1.4904874619526E+00  9.3147089914794E-02
    46  4.5000000000000E-01  1.4609401481827E+00  1.5639116447545E-01
    47  4.6000000000000E-01  1.4296108680368E+00  2.1887002188468E-01
    48  4.7000000000000E-01  1.3967303708655E+00  2.7972948952865E-01
    49  4.8000000000000E-01  1.3625235391084E+00  3.3817091682207E-01
    50  4.9000000000000E-01  1.3272063298217E+00  3.9346844066634E-01
    51  5.0000000000000E-01  1.2909829574575E+00  4.4498471376099E-01
    52  5.1000000000000E-01  1.2540433732661E+00  4.9218474865270E-01
    53  5.2000000000000E-01  1.2165610906980E+00  5.3464756815990E-01
    54  5.3000000000000E-01  1.1786913991432E+00  5.7207539729108E-01
    55  5.4000000000000E-01  1.1405700003891E+00  6.0430018209713E-01
    56  5.5000000000000E-01  1.1023120934713E+00  6.3128727604710E-01
    57  5.6000000000000E-01  1.0640119243111E+00  6.5313619337903E-01
    58  5.7000000000000E-01  1.0257428068600E+00  6.7007839024852E-01
    59  5.8000000000000E-01  9.8755761261570E-01  6.8247209712196E-01
    60  5.9000000000000E-01  9.4948971552433E-01  6.9079428844349E-01
    61  6.0000000000000E-01  9.1155436965988E-01  6.9562993684774E-01
    62  6.1000000000000E-01  8.7375048785753E-01  6.9765875781562E-01
    63  6.2000000000000E-01  8.3606278088129E-01  6.9763970544337E-01
    64  6.3000000000000E-01  7.9846420889994E-01  6.9639352975774E-01
    65  6.4000000000000E-01  7.6091869019832E-01  6.9478374969707E-01
    66  6.5000000000000E-01  7.2338400631258E-01  6.9369643254324E-01
    67  6.6000000000000E-01  6.8581483827086E-01  6.9401919942850E-01
    68  6.7000000000000E-01  6.4816586544923E-01  6.9661989689924E-01
    69  6.8000000000000E-01  6.1039485678863E-01  7.0232538592028E-01
    70  6.9000000000000E-01  5.7246568380954E-01  7.1190090184485E-01
    71  7.0000000000000E-01  5.3435118602216E-01  7.2603043164798E-01
    72  7.1000000000000E-01  4.9603582194855E-01  7.4529853820456E-01
    73  7.2000000000000E-01  4.5751804300407E-01  7.7017403585967E-01
    74  7.3000000000000E-01  4.1881233285730E-01  8.0099588744498E-01
    75  7.4000000000000E-01  3.7995086149717E-01  8.3796165087904E-01
    76  7.5000000000000E-01  3.4098471095900E-01  8.8111875435038E-01
    77  7.6000000000000E-01  3.0198463834355E-01  9.3035882377909E-01
    78  7.7000000000000E-01  2.6304135123699E-01  9.8541522586409E-01
    79  7.8000000000000E-01  2.2426528071388E-01  1.0458639257485E+00
    80  7.9000000000000E-01  1.8578584757884E-01  1.1111276914587E+00
    81  8.0000000000000E-01  1.4775022816416E-01  1.1804836091333E+00
    82  8.1000000000000E-01  1.1032163663225E-01  1.2530738050392E+00
    83  8.2000000000000E-01  7.3677151117895E-02  1.3279192038511E+00
    84  8.3000000000000E-01  3.8005120969957E-02  1.4039360890147E+00
    85  8.4000000000000E-01  3.5022016104737E-03  1.4799551715364E+00
    86  8.5000000000000E-01 -2.9629928072133E-02  1.5547428194652E+00
    87  8.6000000000000E-01 -6.1188103518611E-02  1.6270240528106E+00
    88  8.7000000000000E-01 -9.0971399039825E-02  1.6955068686533E+00
    89  8.8000000000000E-01 -1.1878496582296E-01  1.7589074296365E+00
    90  8.9000000000000E-01 -1.4444390672290E-01  1.8159756265502E+00
    91  9.0000000000000E-01 -1.6777710927529E-01  1.8655205128645E+00
    92  9.1000000000000E-01 -1.8863095805040E-01  1.9064351061405E+00
    93  9.2000000000000E-01 -2.0687284873298E-01  1.9377200583857E+00
    94  9.3000000000000E-01 -2.2239442914904E-01  1.9585057145281E+00
    95  9.4000000000000E-01 -2.3511449682055E-01  1.9680721049895E+00
    96  9.5000000000000E-01 -2.4498148843530E-01  1.9658664543614E+00
    97  9.6000000000000E-01 -2.5197550376710E-01  1.9515178327540E+00
    98  9.7000000000000E-01 -2.5610981493533E-01  1.9248486286670E+00
    99  9.8000000000000E-01 -2.5743182129242E-01  1.8858825811939E+00
   100  9.9000000000000E-01 -2.5602342049833E-01  1.8348491739243E+00
   101  1.0000000000000E+00 -2.5200077727469E-01  1.7721842617399E+00
   102  1.0100000000000E+00 -2.4551348271899E-01  1.6985268734807E+00
   103  1.0200000000000E+00 -2.3674310867688E-01  1.6147122067788E+00
   104  1.0300000000000E+00 -2.2590117329251E-01  1.5217609047835E+00
   105  1.0400000000000E+00 -2.1322654523934E-01  1.4208647764941E+00
   106  1.0500000000000E+00 -1.9898232506589E-01  1.3133691916316E+00
   107  1.0600000000000E+00 -1.8345225235043E-01  1.2007524460241E+00
   108  1.0700000000000E+00 -1.6693669672022E-01  1.0846024529040E+00
   109  1.0800000000000E+00 -1.4974829910310E-01  9.6659116837238E-01
   110  1.0900000000000E+00 -1.3220733663294E-01  8.4844720424443E-01
   111  1.1000000000000E+00 -1.1463689030902E-01  7.3192711780363E-01
   112  1.1100000000000E+00 -9.7357898686783E-02  6.1878589486612E-01
   113  1.1200000000000E+00 -8.0684183461136E-02  5.1074715939666E-01
   114  1.1300000000000E+00 -6.4917534418955E-02  4.0947365366170E-01
   115  1.1400000000000E+00 -5.0342937600899E-02  3.1653850629735E-01
   116  1.1500000000000E+00 -3.7222677492247E-02  2.3338932332719E-01
   117  1.1600000000000E+00 -2.5782029278959E-02  1.6125836386862E-01
   118  1.1700000000000E+00 -1.6235949352703E-02  1.0133171813443E-01
   119  1.1800000000000E+00 -8.7695417684118E-03  5.4629195069099E-02
   120  1.1900000000000E+00 -3.5298052134530E-03  2.1952550178932E-02
   121  1.2000000000000E+00 -6.1737331760185E-04  3.8341207891545E-03
   122  1.2100000000000E+00  3.0944435923748E-05 -1.9199467326155E-04
   123  1.2200000000000E+00 -5.5529161843302E-06  3.4461949824191E-05
   124  1.23 -0.  0.
   125  1.24  0.  0.
   126  1.25  0.  0.
   127  1.26  0.  0.
   128  1.27  0.  0.
   129  1.28  0.  0.
   130  1.29  0.  0.
   131  1.30  0.  0.
   132  1.31  0.  0.
   133  1.32  0.  0.
   134  1.33  0.  0.
   135  1.34  0.  0.
   136  1.35  0.  0.
   137  1.36  0.  0.
   138  1.37  0.  0.
   139  1.38  0.  0.
   140  1.39  0.  0.
   141  1.40  0.  0.
   142  1.41  0.  0.
   143  1.42  0.  0.
   144  1.43  0.  0.
   145  1.44  0.  0.
   146  1.45  0.  0.
   147  1.46  0.  0.
   148  1.47  0.  0.
   149  1.48  0.  0.
   150  1.49  0.  0.
   151  1.50  0.  0.
   152  1.51  0.  0.
   153  1.52  0.  0.
   154  1.53  0.  0.
   155  1.54  0.  0.
   156  1.55  0.  0.
   157  1.56  0.  0.
   158  1.57  0.  0.
   159  1.58  0.  0.
   160  1.59  0.  0.
   161  1.60  0.  0.
   162  1.61  0.  0.
   163  1.62  0.  0.
   164  1.63  0.  0.
   165  1.64  0.  0.
   166  1.65  0.  0.
   167  1.66  0.  0.
   168  1.67  0.  0.
   169  1.68  0.  0.
   170  1.69  0.  0.
   171  1.70  0.  0.
   172  1.71  0.  0.
   173  1.72  0.  0.
   174  1.73  0.  0.
   175  1.74  0.  0.
   176  1.75  0.  0.
   177  1.76  0.  0.
   178  1.77  0.  0.
   179  1.78  0.  0.
   180  1.79  0.  0.
   181  1.80  0.  0.
   182  1.81  0.  0.
   183  1.82  0.  0.
   184  1.83  0.  0.
   185  1.84  0.  0.
   186  1.85  0.  0.
   187  1.86  0.  0.
   188  1.87  0.  0.
   189  1.88  0.  0.
   190  1.89  0.  0.
   191  1.90  0.  0.
   192  1.91  0.  0.
   193  1.92  0.  0.
   194  1.93  0.  0.
   195  1.94  0.  0.
   196  1.95  0.  0.
   197  1.96  0.  0.
   198  1.97  0.  0.
   199  1.98  0.  0.
   200  1.99  0.  0.
   201  2.00  0.  0.
   202  2.01  0.  0.
   203  2.02  0.  0.
   204  2.03  0.  0.
   205  2.04  0.  0.
   206  2.05  0.  0.
   207  2.06  0.  0.
   208  2.07  0.  0.
   209  2.08  0.  0.
   210  2.09  0.  0.
   211  2.10  0.  0.
   212  2.11  0.  0.
   213  2.12  0.  0.
   214  2.13  0.  0.
   215  2.14  0.  0.
   216  2.15  0.  0.
   217  2.16  0.  0.
   218  2.17  0.  0.
   219  2.18  0.  0.
   220  2.19  0.  0.
   221  2.20  0.  0.
   222  2.21  0.  0.
   223  2.22  0.  0.
   224  2.23  0.  0.
   225  2.24  0.  0.
   226  2.25  0.  0.
   227  2.26  0.  0.
   228  2.27  0.  0.
   229  2.28  0.  0.
   230  2.29  0.  0.
   231  2.30  0.  0.
   232  2.31  0.  0.
   233  2.32  0.  0.
   234  2.33  0.  0.
   235  2.34  0.  0.
   236  2.35  0.  0.
   237  2.36  0.  0.
   238  2.37  0.  0.
   239  2.38  0.  0.
   240  2.39  0.  0.
   241  2.40  0.  0.
   242  2.41  0.  0.
   243  2.42  0.  0.
   244  2.43  0.  0.
   245  2.44  0.  0.
   246  2.45  0.  0.
   247  2.46  0.  0.
   248  2.47  0.  0.
   249  2.48  0.  0.
   250  2.49  0.  0.
   251  2.50  0.  0.
   252  2.51  0.  0.
   253  2.52  0.  0.
   254  2.53  0.  0.
   255  2.54  0.  0.
   256  2.55  0.  0.
   257  2.56  0.  0.
   258  2.57  0.  0.
   259  2.58  0.  0.
   260  2.59  0.  0.
   261  2.60  0.  0.
   262  2.61  0.  0.
   263  2.62  0.  0.
   264  2.63  0.  0.
   265  2.64  0.  0.
   266  2.65  0.  0.
   267  2.66  0.  0.
   268  2.67  0.  0.
   269  2.68  0.  0.
   270  2.69  0.  0.
   271  2.70  0.  0.
   272  2.71  0.  0.
   273  2.72  0.  0.
   274  2.73  0.  0.
   275  2.74  0.  0.
   276  2.75  0.  0.
   277  2.76  0.  0.
   278  2.77  0.  0.
   279  2.78  0.  0.
   280  2.79  0.  0.
   281  2.80  0.  0.
   282  2.81  0.  0.
   283  2.82  0.  0.
   284  2.83  0.  0.
   285  2.84  0.  0.
   286  2.85  0.  0.
   287  2.86  0.  0.
   288  2.87  0.  0.
   289  2.88  0.  0.
   290  2.89  0.  0.
   291  2.90  0.  0.
   292  2.91  0.  0.
   293  2.92  0.  0.
   294  2.93  0.  0.
   295  2.94  0.  0.
   296  2.95  0.  0.
   297  2.96  0.  0.
   298  2.97  0.  0.
   299  2.98  0.  0.
   300  2.99  0.  0.
   301  3.00  0.  0.
   302  3.01  0.  0.
   303  3.02  0.  0.
   304  3.03  0.  0.
   305  3.04  0.  0.
   306  3.05  0.  0.
   307  3.06  0.  0.
   308  3.07  0.  0.
   309  3.08  0.  0.
   310  3.09  0.  0.
   311  3.10  0.  0.
   312  3.11  0.  0.
   313  3.12  0.  0.
   314  3.13  0.  0.
   315  3.14  0.  0.
   316  3.15  0.  0.
   317  3.16  0.  0.
   318  3.17  0.  0.
   319  3.18  0.  0.
   320  3.19  0.  0.
   321  3.20  0.  0.
   322  3.21  0.  0.
   323  3.22  0.  0.
   324  3.23  0.  0.
   325  3.24  0.  0.
   326  3.25  0.  0.
   327  3.26  0.  0.
   328  3.27  0.  0.
   329  3.28  0.  0.
   330  3.29  0.  0.
   331  3.30  0.  0.
   332  3.31  0.  0.
   333  3.32  0.  0.
   334  3.33  0.  0.
   335  3.34  0.  0.
   336  3.35  0.  0.
   337  3.36  0.  0.
   338  3.37  0.  0.
   339  3.38  0.  0.
   340  3.39  0.  0.
   341  3.40  0.  0.
   342  3.41  0.  0.
   343  3.42  0.  0.
   344  3.43  0.  0.
   345  3.44  0.  0.
   346  3.45  0.  0.
   347  3.46  0.  0.
   348  3.47  0.  0.
   349  3.48  0.  0.
   350  3.49  0.  0.
   351  3.50  0.  0.
   352  3.51  0.  0.
   353  3.52  0.  0.
   354  3.53  0.  0.
   355  3.54  0.  0.
   356  3.55  0.  0.
   357  3.56  0.  0.
   358  3.57  0.  0.
   359  3.58  0.  0.
   360  3.59  0.  0.
   361  3.60  0.  0.
   362  3.61  0.  0.
   363  3.62  0.  0.
   364  3.63  0.  0.
   365  3.64  0.  0.
   366  3.65  0.  0.
   367  3.66  0.  0.
   368  3.67  0.  0.
   369  3.68  0.  0.
   370  3.69  0.  0.
   371  3.70  0.  0.
   372  3.71  0.  0.
   373  3.72  0.  0.
   374  3.73  0.  0.
   375  3.74  0.  0.
   376  3.75  0.  0.
   377  3.76  0.  0.
   378  3.77  0.  0.
   379  3.78  0.  0.
   380  3.79  0.  0.
   381  3.80  0.  0.
   382  3.81  0.  0.
   383  3.82  0.  0.
   384  3.83  0.  0.
   385  3.84  0.  0.
   386  3.85  0.  0.
   387  3.86  0.  0.
   388  3.87  0.  0.
   389  3.88  0.  0.
   390  3.89  0.  0.
   391  3.90  0.  0.
   392  3.91  0.  0.
   393  3.92  0.  0.
   394  3.93  0.  0.
   395  3.94  0.  0.
   396  3.95  0.  0.
   397  3.96  0.  0.
   398  3.97  0.  0.
   399  3.98  0.  0.
   400  3.99  0.  0.
   401  4.00  0.  0.
   402  4.01  0.  0.
   403  4.02  0.  0.
   404  4.03  0.  0.
   405  4.04  0.  0.
   406  4.05  0.  0.
   407  4.06  0.  0.
   408  4.07  0.  0.
   409  4.08  0.  0.
   410  4.09  0.  0.
   411  4.10  0.  0.
   412  4.11  0.  0.
   413  4.12  0.  0.
   414  4.13  0.  0.
   415  4.14  0.  0.
   416  4.15  0.  0.
   417  4.16  0.  0.
   418  4.17  0.  0.
   419  4.18  0.  0.
   420  4.19  0.  0.
   421  4.20  0.  0.
   422  4.21  0.  0.
   423  4.22  0.  0.
   424  4.23  0.  0.
   425  4.24  0.  0.
   426  4.25  0.  0.
   427  4.26  0.  0.
   428  4.27  0.  0.
   429  4.28  0.  0.
   430  4.29  0.  0.
   431  4.30  0.  0.
   432  4.31  0.  0.
   433  4.32  0.  0.
   434  4.33  0.  0.
   435  4.34  0.  0.
   436  4.35  0.  0.
   437  4.36  0.  0.
   438  4.37  0.  0.
   439  4.38  0.  0.
   440  4.39  0.  0.
   441  4.40  0.  0.
   442  4.41  0.  0.
   443  4.42  0.  0.
   444  4.43  0.  0.
   445  4.44  0.  0.
   446  4.45  0.  0.
   447  4.46  0.  0.
   448  4.47  0.  0.
   449  4.48  0.  0.
   450  4.49  0.  0.
   451  4.50  0.  0.
   452  4.51  0.  0.
   453  4.52  0.  0.
   454  4.53  0.  0.
   455  4.54  0.  0.
   456  4.55  0.  0.
   457  4.56  0.  0.
   458  4.57  0.  0.
   459  4.58  0.  0.
   460  4.59  0.  0.
   461  4.60  0.  0.
   462  4.61  0.  0.
   463  4.62  0.  0.
   464  4.63  0.  0.
   465  4.64  0.  0.
   466  4.65  0.  0.
   467  4.66  0.  0.
   468  4.67  0.  0.
   469  4.68  0.  0.
   470  4.69  0.  0.
   471  4.70  0.  0.
   472  4.71  0.  0.
   473  4.72  0.  0.
   474  4.73  0.  0.
   475  4.74  0.  0.
   476  4.75  0.  0.
   477  4.76  0.  0.
   478  4.77  0.  0.
   479  4.78  0.  0.
   480  4.79  0.  0.
   481  4.80  0.  0.
   482  4.81  0.  0.
   483  4.82  0.  0.
   484  4.83  0.  0.
   485  4.84  0.  0.
   486  4.85  0.  0.
   487  4.86  0.  0.
   488  4.87  0.  0.
   489  4.88  0.  0.
   490  4.89  0.  0.
   491  4.90  0.  0.
   492  4.91  0.  0.
   493  4.92  0.  0.
   494  4.93  0.  0.
   495  4.94  0.  0.
   496  4.95  0.  0.
   497  4.96  0.  0.
   498  4.97  0.  0.
   499  4.98  0.  0.
   500  4.99  0.  0.
   501  5.00  0.  0.
   502  5.01  0.  0.
   503  5.02  0.  0.
   504  5.03  0.  0.
   505  5.04  0.  0.
   506  5.05  0.  0.
   507  5.06  0.  0.
   508  5.07  0.  0.
   509  5.08  0.  0.
   510  5.09  0.  0.
   511  5.10  0.  0.
   512  5.11  0.  0.
   513  5.12  0.  0.
   514  5.13  0.  0.
   515  5.14  0.  0.
   516  5.15  0.  0.
   517  5.16  0.  0.
   518  5.17  0.  0.
   519  5.18  0.  0.
   520  5.19  0.  0.
   521  5.20  0.  0.
   522  5.21  0.  0.
   523  5.22  0.  0.
   524  5.23  0.  0.
   525  5.24  0.  0.
   526  5.25  0.  0.
   527  5.26  0.  0.
   528  5.27  0.  0.
   529  5.28  0.  0.
   530  5.29  0.  0.
   531  5.30  0.  0.
   532  5.31  0.  0.
   533  5.32  0.  0.
   534  5.33  0.  0.
   535  5.34  0.  0.
   536  5.35  0.  0.
   537  5.36  0.  0.
   538  5.37  0.  0.
   539  5.38  0.  0.
   540  5.39  0.  0.
   541  5.40  0.  0.
   542  5.41  0.  0.
   543  5.42  0.  0.
   544  5.43  0.  0.
   545  5.44  0.  0.
   546  5.45  0.  0.
   547  5.46  0.  0.
   548  5.47  0.  0.
   549  5.48  0.  0.
   550  5.49  0.  0.
   551  5.50  0.  0.
   552  5.51  0.  0.
   553  5.52  0.  0.
   554  5.53  0.  0.
   555  5.54  0.  0.
   556  5.55  0.  0.
   557  5.56  0.  0.
   558  5.57  0.  0.
   559  5.58  0.  0.
   560  5.59  0.  0.
   561  5.60  0.  0.
   562  5.61  0.  0.
   563  5.62  0.  0.
   564  5.63  0.  0.
   565  5.64  0.  0.
   566  5.65  0.  0.
   567  5.66  0.  0.
   568  5.67  0.  0.
   569  5.68  0.  0.
   570  5.69  0.  0.
   571  5.70  0.  0.
   572  5.71  0.  0.
   573  5.72  0.  0.
   574  5.73  0.  0.
   575  5.74  0.  0.
   576  5.75  0.  0.
   577  5.76  0.  0.
   578  5.77  0.  0.
   579  5.78  0.  0.
   580  5.79  0.  0.
   581  5.80  0.  0.
   582  5.81  0.  0.
   583  5.82  0.  0.
   584  5.83  0.  0.
   585  5.84  0.  0.
   586  5.85  0.  0.
   587  5.86  0.  0.
   588  5.87  0.  0.
   589  5.88  0.  0.
   590  5.89  0.  0.
   591  5.90  0.  0.
   592  5.91  0.  0.
   593  5.92  0.  0.
   594  5.93  0.  0.
   595  5.94  0.  0.
   596  5.95  0.  0.
   597  5.96  0.  0.
   598  5.97  0.  0.
   599  5.98  0.  0.
   600  5.99  0.  0.
   1                        -4.1955158967690E+00 -8.4566683221413E-01
     1  0.0000000000000E+00 -1.7854029338293E-08  3.4193215356360E-08
     2  1.0000000000000E-02  2.4311872894294E-03 -1.0180711272971E-03
     3  2.0000000000000E-02  9.7173365214247E-03 -4.0704740912439E-03
     4  3.0000000000000E-02  2.1835963474461E-02 -9.1512952893395E-03
     5  4.0000000000000E-02  3.8748785907185E-02 -1.6249095310300E-02
     6  5.0000000000000E-02  6.0400554045237E-02 -2.5344618341859E-02
     7  6.0000000000000E-02  8.6717498188020E-02 -3.6407750964347E-02
     8  7.0000000000000E-02  1.1760547453501E-01 -4.9393888111725E-02
     9  8.0000000000000E-02  1.5294790818522E-01 -6.4239898175026E-02
    10  9.0000000000000E-02  1.9260364638441E-01 -8.0859905792530E-02
    11  1.0000000000000E-01  2.3640484492396E-01 -9.9141128697552E-02
    12  1.1000000000000E-01  2.8415501572524E-01 -1.1894001327779E-01
    13  1.2000000000000E-01  3.3562736382868E-01 -1.4007891178486E-01
    14  1.3000000000000E-01  3.9056353717471E-01 -1.6234353232431E-01
    15  1.4000000000000E-01  4.4867290282053E-01 -1.8548137113811E-01
    16  1.5000000000000E-01  5.0963244885939E-01 -2.0920130590480E-01
    17  1.6000000000000E-01  5.7308739274248E-01 -2.3317448981391E-01
    18  1.7000000000000E-01  6.3865255454512E-01 -2.5703664032635E-01
    19  1.8000000000000E-01  7.0591452869573E-01 -2.8039176537764E-01
    20  1.9000000000000E-01  7.7443466063840E-01 -3.0281731511391E-01
    21  2.0000000000000E-01  8.4375280674626E-01 -3.2387069101490E-01
    22  2.1000000000000E-01  9.1339182751543E-01 -3.4309698850133E-01
    23  2.2000000000000E-01  9.8286273663735E-01 -3.6003779590614E-01
    24  2.3000000000000E-01  1.0516704029466E+00 -3.7424082402709E-01
    25  2.4000000000000E-01  1.1193196794002E+00 -3.8527009826685E-01
    26  2.5000000000000E-01  1.1853218140102E+00 -3.9271641130892E-01
    27  2.6000000000000E-01  1.2492009827641E+00 -3.9620770983344E-01
    28  2.7000000000000E-01  1.3105007746325E+00 -3.9541907509340E-01
    29  2.8000000000000E-01  1.3687904542229E+00 -3.9008195505079E-01
    30  2.9000000000000E-01  1.4236708287735E+00 -3.7999231563068E-01
    31  3.0000000000000E-01  1.4747795530656E+00 -3.6501740050049E-01
    32  3.1000000000000E-01  1.5217957183763E+00 -3.4510082221856E-01
    33  3.2000000000000E-01  1.5644435894865E+00 -3.2026575181224E-01
    34  3.3000000000000E-01  1.6024953765350E+00 -2.9061602764121E-01
    35  3.4000000000000E-01  1.6357729555053E+00 -2.5633506622226E-01
    36  3.5000000000000E-01  1.6641484815581E+00 -2.1768252567270E-01
    37  3.6000000000000E-01  1.6875438723390E+00 -1.7498874444922E-01
    38  3.7000000000000E-01  1.7059291727776E+00 -1.2864705180869E-01
    39  3.8000000000000E-01  1.7193198476425E+00 -7.9104119470420E-02
    40  3.9000000000000E-01  1.7277730821174E+00 -2.6848593851385E-02
    41  4.0000000000000E-01  1.7313832027641E+00  2.7601687445937E-02
    42  4.1000000000000E-01  1.7302763603855E+00  8.3713534787082E-02
    43  4.2000000000000E-01  1.7246046414571E+00  1.4095289475008E-01
    44  4.3000000000000E-01  1.7145397950836E+00  1.9879954626777E-01
    45  4.4000000000000E-01  1.7002667770919E+00  2.5676154212137E-01
    46  4.5000000000000E-01  1.6819773212962E+00  3.1438892625787E-01
    47  4.6000000000000E-01  1.6598637497839E+00  3.7128626544486E-01
    48  4.7000000000000E-01  1.6341132290611E+00  4.2712355701592E-01
    49  4.8000000000000E-01  1.6049026670901E+00  4.8164511258553E-01
    50  4.9000000000000E-01  1.5723944278986E+00  5.3467606982967E-01
    51  5.0000000000000E-01  1.5367330159735E+00  5.8612624946102E-01
    52  5.1000000000000E-01  1.4980428527558E+00  6.3599115066757E-01
    53  5.2000000000000E-01  1.4564272330448E+00  6.8434996341300E-01
    54  5.3000000000000E-01  1.4119685110291E+00  7.3136056766848E-01
    55  5.4000000000000E-01  1.3647295251125E+00  7.7725158513486E-01
    56  5.5000000000000E-01  1.3147562289459E+00  8.2231164541172E-01
    57  5.6000000000000E-01  1.2620814544095E+00  8.6687612286198E-01
    58  5.7000000000000E-01  1.2067296920397E+00  9.1131168958690E-01
    59  5.8000000000000E-01  1.1487227368724E+00  9.5599911102707E-01
    60  5.9000000000000E-01  1.0880860141196E+00  1.0013147809862E+00
    61  6.0000000000000E-01  1.0248553706672E+00  1.0476115498426E+00
    62  6.1000000000000E-01  9.5908409607565E-01  1.0951994412353E+00
    63  6.2000000000000E-01  8.9084992143394E-01  1.1443268768781E+00
    64  6.3000000000000E-01  8.2026173668822E-01  1.1951630351331E+00
    65  6.4000000000000E-01  7.4746576736208E-01  1.2477819559003E+00
    66  6.5000000000000E-01  6.7265096007545E-01  1.3021489721065E+00
    67  6.6000000000000E-01  5.9605334288025E-01  1.3581099971026E+00
    68  6.7000000000000E-01  5.1795915083411E-01  1.4153841286280E+00
    69  6.8000000000000E-01  4.3870653885750E-01  1.4735599453051E+00
    70  6.9000000000000E-01  3.5868574195302E-01  1.5320957730158E+00
    71  7.0000000000000E-01  2.7833758629780E-01  1.5903240885883E+00
    72  7.1000000000000E-01  1.9815030233684E-01  1.6474601100193E+00
    73  7.2000000000000E-01  1.1865464146648E-01  1.7026144992631E+00
    74  7.3000000000000E-01  4.0417349721060E-02  1.7548099790332E+00
    75  7.4000000000000E-01 -3.5966896458024E-02  1.8030015427167E+00
    76  7.5000000000000E-01 -1.0988493735503E-01  1.8460998201086E+00
    77  7.6000000000000E-01 -1.8071575832335E-01  1.8829970548180E+00
    78  7.7000000000000E-01 -2.4784205570181E-01  1.9125950552533E+00
    79  7.8000000000000E-01 -3.1066246080415E-01  1.9338344031503E+00
    80  7.9000000000000E-01 -3.6860411389801E-01  1.9457241443101E+00
    81  8.0000000000000E-01 -4.2113525978548E-01  1.9473711477560E+00
    82  8.1000000000000E-01 -4.6777752534283E-01  1.9380083034724E+00
    83  8.2000000000000E-01 -5.0811753769055E-01  1.9170207362599E+00
    84  8.3000000000000E-01 -5.4181754978692E-01  1.8839692443129E+00
    85  8.4000000000000E-01 -5.6862475812643E-01  1.8386102255421E+00
    86  8.5000000000000E-01 -5.8837902454608E-01  1.7809114313457E+00
    87  8.6000000000000E-01 -6.0101875028268E-01  1.7110629847594E+00
    88  8.7000000000000E-01 -6.0658469450048E-01  1.6294832153238E+00
    89  8.8000000000000E-01 -6.0522158039024E-01  1.5368189936712E+00
    90  8.9000000000000E-01 -5.9717738828300E-01  1.4339403913324E+00
    91  9.0000000000000E-01 -5.8280029549916E-01  1.3219296417824E+00
    92  9.1000000000000E-01 -5.6253328520646E-01  1.2020645331666E+00
    93  9.2000000000000E-01 -5.3690650963061E-01  1.0757965171668E+00
    94  9.3000000000000E-01 -5.0652755476962E-01  9.4472396775498E-01
    95  9.4000000000000E-01 -4.7206981251950E-01  8.1056116382992E-01
    96  9.5000000000000E-01 -4.3425922011434E-01  6.7510369685055E-01
    97  9.6000000000000E-01 -3.9385967442104E-01  5.4019111479327E-01
    98  9.7000000000000E-01 -3.5165746847030E-01  4.0766770370436E-01
    99  9.8000000000000E-01 -3.0844512842279E-01  2.7934237496189E-01
   100  9.9000000000000E-01 -2.6500504998905E-01  1.5694866791142E-01
   101  1.0000000000000E+00 -2.2209334341507E-01  4.2105892219325E-02
   102  1.0100000000000E+00 -1.8042429512807E-01 -6.3717578637725E-02
   103  1.0200000000000E+00 -1.4065584190907E-01 -1.5923789189511E-01
   104  1.0300000000000E+00 -1.0337643022078E-01 -2.4338527469719E-01
   105  1.0400000000000E+00 -6.9093599660332E-02 -3.1532875744523E-01
   106  1.0500000000000E+00 -3.8224586245479E-02 -3.7449536670817E-01
   107  1.0600000000000E+00 -1.1089189446778E-02 -4.2058322938603E-01
   108  1.0700000000000E+00  1.2094911889940E-02 -4.5356818243625E-01
   109  1.0800000000000E+00  3.1214274020785E-02 -4.7370364814954E-01
   110  1.0900000000000E+00  4.6259180532095E-02 -4.8151370855085E-01
   111  1.1000000000000E+00  5.7320529622694E-02 -4.7777948969240E-01
   112  1.1100000000000E+00  6.4584203732347E-02 -4.6351914279415E-01
   113  1.1200000000000E+00  6.8323076522183E-02 -4.3996187865431E-01
   114  1.1300000000000E+00  6.8886876332085E-02 -4.0851667127057E-01
   115  1.1400000000000E+00  6.6690183194336E-02 -3.7073638986647E-01
   116  1.1500000000000E+00  6.2198887458615E-02 -3.2827824354222E-01
   117  1.1600000000000E+00  5.5915479789453E-02 -2.8286152399143E-01
   118  1.1700000000000E+00  4.8363575269418E-02 -2.3622370943337E-01
   119  1.1800000000000E+00  4.0072088264743E-02 -1.9007603305932E-01
   120  1.1900000000000E+00  3.1559346316989E-02 -1.4605941638636E-01
   121  1.2000000000000E+00  2.3315099159725E-02 -1.0569885601027E-01
   122  1.2100000000000E+00  1.5794209986334E-02 -7.0375831573700E-02
   123  1.2200000000000E+00  9.4006483810491E-03 -4.1287570963685E-02
   124  1.2300000000000E+00  4.4745618114010E-03 -1.9418901639071E-02
   125  1.2400000000000E+00  1.2747135504798E-03 -5.4787236415652E-03
   126  1.2500000000000E+00  3.6693186766723E-05 -1.5634105037596E-04
   127  1.2600000000000E+00  4.9983648323013E-06 -2.1321663762819E-05
   128  1.2700000000000E+00 -1.4907833614524E-06  6.3859171558216E-06
   129  1.28  0. -0.
   130  1.29  0.  0.
   131  1.30  0.  0.
   132  1.31  0.  0.
   133  1.32  0.  0.
   134  1.33  0.  0.
   135  1.34  0.  0.
   136  1.35  0.  0.
   137  1.36  0.  0.
   138  1.37  0.  0.
   139  1.38  0.  0.
   140  1.39  0.  0.
   141  1.40  0.  0.
   142  1.41  0.  0.
   143  1.42  0.  0.
   144  1.43  0.  0.
   145  1.44  0.  0.
   146  1.45  0.  0.
   147  1.46  0.  0.
   148  1.47  0.  0.
   149  1.48  0.  0.
   150  1.49  0.  0.
   151  1.50  0.  0.
   152  1.51  0.  0.
   153  1.52  0.  0.
   154  1.53  0.  0.
   155  1.54  0.  0.
   156  1.55  0.  0.
   157  1.56  0.  0.
   158  1.57  0.  0.
   159  1.58  0.  0.
   160  1.59  0.  0.
   161  1.60  0.  0.
   162  1.61  0.  0.
   163  1.62  0.  0.
   164  1.63  0.  0.
   165  1.64  0.  0.
   166  1.65  0.  0.
   167  1.66  0.  0.
   168  1.67  0.  0.
   169  1.68  0.  0.
   170  1.69  0.  0.
   171  1.70  0.  0.
   172  1.71  0.  0.
   173  1.72  0.  0.
   174  1.73  0.  0.
   175  1.74  0.  0.
   176  1.75  0.  0.
   177  1.76  0.  0.
   178  1.77  0.  0.
   179  1.78  0.  0.
   180  1.79  0.  0.
   181  1.80  0.  0.
   182  1.81  0.  0.
   183  1.82  0.  0.
   184  1.83  0.  0.
   185  1.84  0.  0.
   186  1.85  0.  0.
   187  1.86  0.  0.
   188  1.87  0.  0.
   189  1.88  0.  0.
   190  1.89  0.  0.
   191  1.90  0.  0.
   192  1.91  0.  0.
   193  1.92  0.  0.
   194  1.93  0.  0.
   195  1.94  0.  0.
   196  1.95  0.  0.
   197  1.96  0.  0.
   198  1.97  0.  0.
   199  1.98  0.  0.
   200  1.99  0.  0.
   201  2.00  0.  0.
   202  2.01  0.  0.
   203  2.02  0.  0.
   204  2.03  0.  0.
   205  2.04  0.  0.
   206  2.05  0.  0.
   207  2.06  0.  0.
   208  2.07  0.  0.
   209  2.08  0.  0.
   210  2.09  0.  0.
   211  2.10  0.  0.
   212  2.11  0.  0.
   213  2.12  0.  0.
   214  2.13  0.  0.
   215  2.14  0.  0.
   216  2.15  0.  0.
   217  2.16  0.  0.
   218  2.17  0.  0.
   219  2.18  0.  0.
   220  2.19  0.  0.
   221  2.20  0.  0.