N     ONCVPSP-4.0.1  r_core=   1.20716   1.35246
      7.0000      5.0000      210705    zatom,zion,pspd
     8      11   1     4   600     0    pspcod,pspxc,lmax,lloc,mmax,r2well
  5.99000000  4.00000000  0.00000000    rchrg fchrg qchrg
     2     2     0     0     0    nproj
     1     1           extension_switch
   0                         7.5652217702725E+00  6.6817311037958E-01
     1  0.0000000000000E+00 -1.1329108540181E-08  4.8929795437580E-08
     2  1.0000000000000E-02  9.9008736019260E-02 -7.5271959620316E-02
     3  2.0000000000000E-02  1.9756285735582E-01 -1.4941933716280E-01
     4  3.0000000000000E-02  2.9521346926185E-01 -2.2133995468540E-01
     5  4.0000000000000E-02  3.9152299407769E-01 -2.8997591470596E-01
     6  5.0000000000000E-02  4.8607052584420E-01 -3.5433443394582E-01
     7  6.0000000000000E-02  5.7845682858215E-01 -4.1350714548080E-01
     8  7.0000000000000E-02  6.6830887320658E-01 -4.6668741810736E-01
     9  8.0000000000000E-02  7.5528381937296E-01 -5.1318529066167E-01
    10  9.0000000000000E-02  8.3907236216138E-01 -5.5243967783400E-01
    11  1.0000000000000E-01  9.1940137904690E-01 -5.8402757122043E-01
    12  1.1000000000000E-01  9.9603582968417E-01 -6.0767003325431E-01
    13  1.2000000000000E-01  1.0687798792170E+00 -6.2323486040542E-01
    14  1.3000000000000E-01  1.1374772346482E+00 -6.3073587364500E-01
    15  1.4000000000000E-01  1.2020107027927E+00 -6.3032887660645E-01
    16  1.5000000000000E-01  1.2623009970110E+00 -6.2230440306002E-01
    17  1.6000000000000E-01  1.3183048378069E+00 -6.0707745324012E-01
    18  1.7000000000000E-01  1.3700124090220E+00 -5.8517449127755E-01
    19  1.8000000000000E-01  1.4174442463643E+00 -5.5721804169235E-01
    20  1.9000000000000E-01  1.4606476479789E+00 -5.2390927997991E-01
    21  2.0000000000000E-01  1.4996927074055E+00 -4.8600905937275E-01
    22  2.1000000000000E-01  1.5346680772975E+00 -4.4431785174684E-01
    23  2.2000000000000E-01  1.5656765775170E+00 -3.9965510451010E-01
    24  2.3000000000000E-01  1.5928307635544E+00 -3.5283852661470E-01
    25  2.4000000000000E-01  1.6162485705966E+00 -3.0466381534699E-01
    26  2.5000000000000E-01  1.6360491450310E+00 -2.5588532136363E-01
    27  2.6000000000000E-01  1.6523489688189E+00 -2.0719812297784E-01
    28  2.7000000000000E-01  1.6652583731915E+00 -1.5922194267552E-01
    29  2.8000000000000E-01  1.6748785267507E+00 -1.1248729027073E-01
    30  2.9000000000000E-01  1.6812989696091E+00 -6.7424159264139E-02
    31  3.0000000000000E-01  1.6845957500326E+00 -2.4353537344246E-02
    32  3.1000000000000E-01  1.6848302035532E+00  1.6518079744419E-02
    33  3.2000000000000E-01  1.6820483971341E+00  5.5101057720290E-02
    34  3.3000000000000E-01  1.6762812431427E+00  9.1421841741484E-02
    35  3.4000000000000E-01  1.6675452700764E+00  1.2561906659546E-01
    36  3.5000000000000E-01  1.6558440196561E+00  1.5793667993844E-01
    37  3.6000000000000E-01  1.6411700234807E+00  1.8871427299207E-01
    38  3.7000000000000E-01  1.6235072973498E+00  2.1837488135054E-01
    39  3.8000000000000E-01  1.6028342779765E+00  2.4741057980852E-01
    40  3.9000000000000E-01  1.5791271154645E+00  2.7636624791927E-01
    41  4.0000000000000E-01  1.5523632258859E+00  3.0582192607664E-01
    42  4.1000000000000E-01  1.5225250017814E+00  3.3637421429875E-01
    43  4.2000000000000E-01  1.4896035745580E+00  3.6861718684854E-01
    44  4.3000000000000E-01  1.4536025216594E+00  4.0312330494388E-01
    45  4.4000000000000E-01  1.4145414130371E+00  4.4042480695764E-01
    46  4.5000000000000E-01  1.3724590957846E+00  4.8099604087285E-01
    47  4.6000000000000E-01  1.3274166226831E+00  5.2523717781094E-01
    48  4.7000000000000E-01  1.2794997396499E+00  5.7345970894730E-01
    49  4.8000000000000E-01  1.2288208584099E+00  6.2587408207903E-01
    50  4.9000000000000E-01  1.1755204538361E+00  6.8257977975387E-01
    51  5.0000000000000E-01  1.1197678399596E+00  7.4355807963979E-01
    52  5.1000000000000E-01  1.0617612942569E+00  8.0866767130316E-01
    53  5.2000000000000E-01  1.0017275160794E+00  8.7764323346844E-01
    54  5.3000000000000E-01  9.3992042156495E-01  9.5009700392926E-01
    55  5.4000000000000E-01  8.7661929365937E-01  1.0255233023568E+00
    56  5.5000000000000E-01  8.1212632155953E-01  1.1033058960845E+00
    57  5.6000000000000E-01  7.4676357857942E-01  1.1827280322284E+00
    58  5.7000000000000E-01  6.8086950078397E-01  1.2629848978333E+00
    59  5.8000000000000E-01  6.1479494040962E-01  1.3431982145430E+00
    60  5.9000000000000E-01  5.4889887782451E-01  1.4224326268508E+00
    61  6.0000000000000E-01  4.8354388336045E-01  1.4997135043195E+00
    62  6.1000000000000E-01  4.1909142561053E-01  1.5740457490925E+00
    63  6.2000000000000E-01  3.5589712563704E-01  1.6444331810887E+00
    64  6.3000000000000E-01  2.9430605693833E-01  1.7098980647847E+00
    65  6.4000000000000E-01  2.3464818901244E-01  1.7695003434529E+00
    66  6.5000000000000E-01  1.7723406801973E-01  1.8223561589180E+00
    67  6.6000000000000E-01  1.2235082153707E-01  1.8676552568164E+00
    68  6.7000000000000E-01  7.0258565915825E-02  1.9046769082832E+00
    69  6.8000000000000E-01  2.1187284552186E-02  1.9328040180148E+00
    70  6.9000000000000E-01 -2.4665766255202E-02  1.9515351346385E+00
    71  7.0000000000000E-01 -6.7138079933428E-02  1.9604941310276E+00
    72  7.1000000000000E-01 -1.0610332033842E-01  1.9594373782139E+00
    73  7.2000000000000E-01 -1.4147212405471E-01  1.9482582954649E+00
    74  7.3000000000000E-01 -1.7319228180311E-01  1.9269892193730E+00
    75  7.4000000000000E-01 -2.0124831016469E-01  1.8958005950047E+00
    76  7.5000000000000E-01 -2.2566043789977E-01  1.8549975508015E+00
    77  7.6000000000000E-01 -2.4648304327227E-01  1.8050139746596E+00
    78  7.7000000000000E-01 -2.6380258970818E-01  1.7464042601824E+00
    79  7.8000000000000E-01 -2.7773511658108E-01  1.6798329383790E+00
    80  7.9000000000000E-01 -2.8842334973392E-01  1.6060624501172E+00
    81  8.0000000000000E-01 -2.9603350237068E-01  1.5259393476784E+00
    82  8.1000000000000E-01 -3.0075184108804E-01  1.4403792392230E+00
    83  8.2000000000000E-01 -3.0278109402597E-01  1.3503508075129E+00
    84  8.3000000000000E-01 -3.0233677840652E-01  1.2568592436994E+00
    85  8.4000000000000E-01 -2.9964352316465E-01  1.1609294384381E+00
    86  8.5000000000000E-01 -2.9493145906130E-01  1.0635892663023E+00
    87  8.6000000000000E-01 -2.8843274375906E-01  9.6585328587055E-01
    88  8.7000000000000E-01 -2.8037828302449E-01  8.6870715759892E-01
    89  8.8000000000000E-01 -2.7099470171762E-01  7.7309305539512E-01
    90  8.9000000000000E-01 -2.6050160978359E-01  6.7989631658692E-01
    91  9.0000000000000E-01 -2.4910919933425E-01  5.8993353968384E-01
    92  9.1000000000000E-01 -2.3701619936633E-01  5.0394230100216E-01
    93  9.2000000000000E-01 -2.2440820498035E-01  4.2257262092713E-01
    94  9.3000000000000E-01 -2.1145638839834E-01  3.4638026937559E-01
    95  9.4000000000000E-01 -1.9831658987995E-01  2.7582195893453E-01
    96  9.5000000000000E-01 -1.8512877803045E-01  2.1125243416438E-01
    97  9.6000000000000E-01 -1.7201686117914E-01  1.5292342755637E-01
    98  9.7000000000000E-01 -1.5908882465082E-01  1.0098441741804E-01
    99  9.8000000000000E-01 -1.4643716298809E-01  5.5485091203875E-02
   100  9.9000000000000E-01 -1.3413957159825E-01  1.6379390028823E-02
   101  1.0000000000000E+00 -1.2225985895388E-01 -1.6469013276368E-02
   102  1.0100000000000E+00 -1.1084903838041E-01 -4.3279968957581E-02
   103  1.0200000000000E+00 -9.9946557592678E-02 -6.4349018377785E-02
   104  1.0300000000000E+00 -8.9581624437329E-02 -8.0038665006352E-02
   105  1.0400000000000E+00 -7.9774588661064E-02 -9.0768942817538E-02
   106  1.0500000000000E+00 -7.0538341835286E-02 -9.7007477067022E-02
   107  1.0600000000000E+00 -6.1879700683946E-02 -9.9259229038430E-02
   108  1.0700000000000E+00 -5.3800742808072E-02 -9.8056109585025E-02
   109  1.0800000000000E+00 -4.6300068020407E-02 -9.3946636626171E-02
   110  1.0900000000000E+00 -3.9373962999547E-02 -8.7485799793752E-02
   111  1.1000000000000E+00 -3.3017451574770E-02 -7.9225281737894E-02
   112  1.1100000000000E+00 -2.7225217495155E-02 -6.9704170739516E-02
   113  1.1200000000000E+00 -2.1992390838751E-02 -5.9440283886777E-02
   114  1.1300000000000E+00 -1.7315193662329E-02 -4.8922202179501E-02
   115  1.1400000000000E+00 -1.3191442444489E-02 -3.8602116028097E-02
   116  1.1500000000000E+00 -9.6199284713472E-03 -2.8894228852523E-02
   117  1.1600000000000E+00 -6.5934881212529E-03 -2.0204743015194E-02
   118  1.1700000000000E+00 -4.1210784525464E-03 -1.2821682600705E-02
   119  1.1800000000000E+00 -2.2158306403008E-03 -6.9664086310943E-03
   120  1.1900000000000E+00 -8.9046110076925E-04 -2.8159004016423E-03
   121  1.2000000000000E+00 -1.5593977071819E-04 -4.9382804658040E-04
   122  1.2100000000000E+00  7.8382730040424E-06  2.4751313946854E-05
   123  1.2200000000000E+00 -1.4044940964473E-06 -4.4435995830017E-06
   124  1.23 -0.  0.
   125  1.24  0.  0.
   126  1.25  0.  0.
   127  1.26  0.  0.
   128  1.27  0.  0.
   129  1.28  0.  0.
   130  1.29  0.  0.
   131  1.30  0.  0.
   132  1.31  0.  0.
   133  1.32  0.  0.
   134  1.33  0.  0.
   135  1.34  0.  0.
   136  1.35  0.  0.
   137  1.36  0.  0.
   138  1.37  0.  0.
   139  1.38  0.  0.
   140  1.39  0.  0.
   141  1.40  0.  0.
   142  1.41  0.  0.
   143  1.42  0.  0.
   144  1.43  0.  0.
   145  1.44  0.  0.
   146  1.45  0.  0.
   147  1.46  0.  0.
   148  1.47  0.  0.
   149  1.48  0.  0.
   150  1.49  0.  0.
   151  1.50  0.  0.
   152  1.51  0.  0.
   153  1.52  0.  0.
   154  1.53  0.  0.
   155  1.54  0.  0.
   156  1.55  0.  0.
   157  1.56  0.  0.
   158  1.57  0.  0.
   159  1.58  0.  0.
   160  1.59  0.  0.
   161  1.60  0.  0.
   162  1.61  0.  0.
   163  1.62  0.  0.
   164  1.63  0.  0.
   165  1.64  0.  0.
   166  1.65  0.  0.
   167  1.66  0.  0.
   168  1.67  0.  0.
   169  1.68  0.  0.
   170  1.69  0.  0.
   171  1.70  0.  0.
   172  1.71  0.  0.
   173  1.72  0.  0.
   174  1.73  0.  0.
   175  1.74  0.  0.
   176  1.75  0.  0.
   177  1.76  0.  0.
   178  1.77  0.  0.
   179  1.78  0.  0.
   180  1.79  0.  0.
   181  1.80  0.  0.
   182  1.81  0.  0.
   183  1.82  0.  0.
   184  1.83  0.  0.
   185  1.84  0.  0.
   186  1.85  0.  0.
   187  1.86  0.  0.
   188  1.87  0.  0.
   189  1.88  0.  0.
   190  1.89  0.  0.
   191  1.90  0.  0.
   192  1.91  0.  0.
   193  1.92  0.  0.
   194  1.93  0.  0.
   195  1.94  0.  0.
   196  1.95  0.  0.
   197  1.96  0.  0.
   198  1.97  0.  0.
   199  1.98  0.  0.
   200  1.99  0.  0.
   201  2.00  0.  0.
   202  2.01  0.  0.
   203  2.02  0.  0.
   204  2.03  0.  0.
   205  2.04  0.  0.
   206  2.05  0.  0.
   207  2.06  0.  0.
   208  2.07  0.  0.
   209  2.08  0.  0.
   210  2.09  0.  0.
   211  2.10  0.  0.
   212  2.11  0.  0.
   213  2.12  0.  0.
   214  2.13  0.  0.
   215  2.14  0.  0.
   216  2.15  0.  0.
   217  2.16  0.  0.
   218  2.17  0.  0.
   219  2.18  0.  0.
   220  2.19  0.  0.
   221  2.20  0.  0.
   222  2.21  0.  0.
   223  2.22  0.  0.
   224  2.23  0.  0.
   225  2.24  0.  0.
   226  2.25  0.  0.
   227  2.26  0.  0.
   228  2.27  0.  0.
   229  2.28  0.  0.
   230  2.29  0.  0.
   231  2.30  0.  0.
   232  2.31  0.  0.
   233  2.32  0.  0.
   234  2.33  0.  0.
   235  2.34  0.  0.
   236  2.35  0.  0.
   237  2.36  0.  0.
   238  2.37  0.  0.
   239  2.38  0.  0.
   240  2.39  0.  0.
   241  2.40  0.  0.
   242  2.41  0.  0.
   243  2.42  0.  0.
   244  2.43  0.  0.
   245  2.44  0.  0.
   246  2.45  0.  0.
   247  2.46  0.  0.
   248  2.47  0.  0.
   249  2.48  0.  0.
   250  2.49  0.  0.
   251  2.50  0.  0.
   252  2.51  0.  0.
   253  2.52  0.  0.
   254  2.53  0.  0.
   255  2.54  0.  0.
   256  2.55  0.  0.
   257  2.56  0.  0.
   258  2.57  0.  0.
   259  2.58  0.  0.
   260  2.59  0.  0.
   261  2.60  0.  0.
   262  2.61  0.  0.
   263  2.62  0.  0.
   264  2.63  0.  0.
   265  2.64  0.  0.
   266  2.65  0.  0.
   267  2.66  0.  0.
   268  2.67  0.  0.
   269  2.68  0.  0.
   270  2.69  0.  0.
   271  2.70  0.  0.
   272  2.71  0.  0.
   273  2.72  0.  0.
   274  2.73  0.  0.
   275  2.74  0.  0.
   276  2.75  0.  0.
   277  2.76  0.  0.
   278  2.77  0.  0.
   279  2.78  0.  0.
   280  2.79  0.  0.
   281  2.80  0.  0.
   282  2.81  0.  0.
   283  2.82  0.  0.
   284  2.83  0.  0.
   285  2.84  0.  0.
   286  2.85  0.  0.
   287  2.86  0.  0.
   288  2.87  0.  0.
   289  2.88  0.  0.
   290  2.89  0.  0.
   291  2.90  0.  0.
   292  2.91  0.  0.
   293  2.92  0.  0.
   294  2.93  0.  0.
   295  2.94  0.  0.
   296  2.95  0.  0.
   297  2.96  0.  0.
   298  2.97  0.  0.
   299  2.98  0.  0.
   300  2.99  0.  0.
   301  3.00  0.  0.
   302  3.01  0.  0.
   303  3.02  0.  0.
   304  3.03  0.  0.
   305  3.04  0.  0.
   306  3.05  0.  0.
   307  3.06  0.  0.
   308  3.07  0.  0.
   309  3.08  0.  0.
   310  3.09  0.  0.
   311  3.10  0.  0.
   312  3.11  0.  0.
   313  3.12  0.  0.
   314  3.13  0.  0.
   315  3.14  0.  0.
   316  3.15  0.  0.
   317  3.16  0.  0.
   318  3.17  0.  0.
   319  3.18  0.  0.
   320  3.19  0.  0.
   321  3.20  0.  0.
   322  3.21  0.  0.
   323  3.22  0.  0.
   324  3.23  0.  0.
   325  3.24  0.  0.
   326  3.25  0.  0.
   327  3.26  0.  0.
   328  3.27  0.  0.
   329  3.28  0.  0.
   330  3.29  0.  0.
   331  3.30  0.  0.
   332  3.31  0.  0.
   333  3.32  0.  0.
   334  3.33  0.  0.
   335  3.34  0.  0.
   336  3.35  0.  0.
   337  3.36  0.  0.
   338  3.37  0.  0.
   339  3.38  0.  0.
   340  3.39  0.  0.
   341  3.40  0.  0.
   342  3.41  0.  0.
   343  3.42  0.  0.
   344  3.43  0.  0.
   345  3.44  0.  0.
   346  3.45  0.  0.
   347  3.46  0.  0.
   348  3.47  0.  0.
   349  3.48  0.  0.
   350  3.49  0.  0.
   351  3.50  0.  0.
   352  3.51  0.  0.
   353  3.52  0.  0.
   354  3.53  0.  0.
   355  3.54  0.  0.
   356  3.55  0.  0.
   357  3.56  0.  0.
   358  3.57  0.  0.
   359  3.58  0.  0.
   360  3.59  0.  0.
   361  3.60  0.  0.
   362  3.61  0.  0.
   363  3.62  0.  0.
   364  3.63  0.  0.
   365  3.64  0.  0.
   366  3.65  0.  0.
   367  3.66  0.  0.
   368  3.67  0.  0.
   369  3.68  0.  0.
   370  3.69  0.  0.
   371  3.70  0.  0.
   372  3.71  0.  0.
   373  3.72  0.  0.
   374  3.73  0.  0.
   375  3.74  0.  0.
   376  3.75  0.  0.
   377  3.76  0.  0.
   378  3.77  0.  0.
   379  3.78  0.  0.
   380  3.79  0.  0.
   381  3.80  0.  0.
   382  3.81  0.  0.
   383  3.82  0.  0.
   384  3.83  0.  0.
   385  3.84  0.  0.
   386  3.85  0.  0.
   387  3.86  0.  0.
   388  3.87  0.  0.
   389  3.88  0.  0.
   390  3.89  0.  0.
   391  3.90  0.  0.
   392  3.91  0.  0.
   393  3.92  0.  0.
   394  3.93  0.  0.
   395  3.94  0.  0.
   396  3.95  0.  0.
   397  3.96  0.  0.
   398  3.97  0.  0.
   399  3.98  0.  0.
   400  3.99  0.  0.
   401  4.00  0.  0.
   402  4.01  0.  0.
   403  4.02  0.  0.
   404  4.03  0.  0.
   405  4.04  0.  0.
   406  4.05  0.  0.
   407  4.06  0.  0.
   408  4.07  0.  0.
   409  4.08  0.  0.
   410  4.09  0.  0.
   411  4.10  0.  0.
   412  4.11  0.  0.
   413  4.12  0.  0.
   414  4.13  0.  0.
   415  4.14  0.  0.
   416  4.15  0.  0.
   417  4.16  0.  0.
   418  4.17  0.  0.
   419  4.18  0.  0.
   420  4.19  0.  0.
   421  4.20  0.  0.
   422  4.21  0.  0.
   423  4.22  0.  0.
   424  4.23  0.  0.
   425  4.24  0.  0.
   426  4.25  0.  0.
   427  4.26  0.  0.
   428  4.27  0.  0.
   429  4.28  0.  0.
   430  4.29  0.  0.
   431  4.30  0.  0.
   432  4.31  0.  0.
   433  4.32  0.  0.
   434  4.33  0.  0.
   435  4.34  0.  0.
   436  4.35  0.  0.
   437  4.36  0.  0.
   438  4.37  0.  0.
   439  4.38  0.  0.
   440  4.39  0.  0.
   441  4.40  0.  0.
   442  4.41  0.  0.
   443  4.42  0.  0.
   444  4.43  0.  0.
   445  4.44  0.  0.
   446  4.45  0.  0.
   447  4.46  0.  0.
   448  4.47  0.  0.
   449  4.48  0.  0.
   450  4.49  0.  0.
   451  4.50  0.  0.
   452  4.51  0.  0.
   453  4.52  0.  0.
   454  4.53  0.  0.
   455  4.54  0.  0.
   456  4.55  0.  0.
   457  4.56  0.  0.
   458  4.57  0.  0.
   459  4.58  0.  0.
   460  4.59  0.  0.
   461  4.60  0.  0.
   462  4.61  0.  0.
   463  4.62  0.  0.
   464  4.63  0.  0.
   465  4.64  0.  0.
   466  4.65  0.  0.
   467  4.66  0.  0.
   468  4.67  0.  0.
   469  4.68  0.  0.
   470  4.69  0.  0.
   471  4.70  0.  0.
   472  4.71  0.  0.
   473  4.72  0.  0.
   474  4.73  0.  0.
   475  4.74  0.  0.
   476  4.75  0.  0.
   477  4.76  0.  0.
   478  4.77  0.  0.
   479  4.78  0.  0.
   480  4.79  0.  0.
   481  4.80  0.  0.
   482  4.81  0.  0.
   483  4.82  0.  0.
   484  4.83  0.  0.
   485  4.84  0.  0.
   486  4.85  0.  0.
   487  4.86  0.  0.
   488  4.87  0.  0.
   489  4.88  0.  0.
   490  4.89  0.  0.
   491  4.90  0.  0.
   492  4.91  0.  0.
   493  4.92  0.  0.
   494  4.93  0.  0.
   495  4.94  0.  0.
   496  4.95  0.  0.
   497  4.96  0.  0.
   498  4.97  0.  0.
   499  4.98  0.  0.
   500  4.99  0.  0.
   501  5.00  0.  0.
   502  5.01  0.  0.
   503  5.02  0.  0.
   504  5.03  0.  0.
   505  5.04  0.  0.
   506  5.05  0.  0.
   507  5.06  0.  0.
   508  5.07  0.  0.
   509  5.08  0.  0.
   510  5.09  0.  0.
   511  5.10  0.  0.
   512  5.11  0.  0.
   513  5.12  0.  0.
   514  5.13  0.  0.
   515  5.14  0.  0.
   516  5.15  0.  0.
   517  5.16  0.  0.
   518  5.17  0.  0.
   519  5.18  0.  0.
   520  5.19  0.  0.
   521  5.20  0.  0.
   522  5.21  0.  0.
   523  5.22  0.  0.
   524  5.23  0.  0.
   525  5.24  0.  0.
   526  5.25  0.  0.
   527  5.26  0.  0.
   528  5.27  0.  0.
   529  5.28  0.  0.
   530  5.29  0.  0.
   531  5.30  0.  0.
   532  5.31  0.  0.
   533  5.32  0.  0.
   534  5.33  0.  0.
   535  5.34  0.  0.
   536  5.35  0.  0.
   537  5.36  0.  0.
   538  5.37  0.  0.
   539  5.38  0.  0.
   540  5.39  0.  0.
   541  5.40  0.  0.
   542  5.41  0.  0.
   543  5.42  0.  0.
   544  5.43  0.  0.
   545  5.44  0.  0.
   546  5.45  0.  0.
   547  5.46  0.  0.
   548  5.47  0.  0.
   549  5.48  0.  0.
   550  5.49  0.  0.
   551  5.50  0.  0.
   552  5.51  0.  0.
   553  5.52  0.  0.
   554  5.53  0.  0.
   555  5.54  0.  0.
   556  5.55  0.  0.
   557  5.56  0.  0.
   558  5.57  0.  0.
   559  5.58  0.  0.
   560  5.59  0.  0.
   561  5.60  0.  0.
   562  5.61  0.  0.
   563  5.62  0.  0.
   564  5.63  0.  0.
   565  5.64  0.  0.
   566  5.65  0.  0.
   567  5.66  0.  0.
   568  5.67  0.  0.
   569  5.68  0.  0.
   570  5.69  0.  0.
   571  5.70  0.  0.
   572  5.71  0.  0.
   573  5.72  0.  0.
   574  5.73  0.  0.
   575  5.74  0.  0.
   576  5.75  0.  0.
   577  5.76  0.  0.
   578  5.77  0.  0.
   579  5.78  0.  0.
   580  5.79  0.  0.
   581  5.80  0.  0.
   582  5.81  0.  0.
   583  5.82  0.  0.
   584  5.83  0.  0.
   585  5.84  0.  0.
   586  5.85  0.  0.
   587  5.86  0.  0.
   588  5.87  0.  0.
   589  5.88  0.  0.
   590  5.89  0.  0.
   591  5.90  0.  0.
   592  5.91  0.  0.
   593  5.92  0.  0.
   594  5.93  0.  0.
   595  5.94  0.  0.
   596  5.95  0.  0.
   597  5.96  0.  0.
   598  5.97  0.  0.
   599  5.98  0.  0.
   600  5.99  0.  0.
   1                        -4.2679125765027E+00 -9.6575653794169E-01
     1  0.0000000000000E+00 -6.8953744658540E-09  1.2681476382892E-08
     2  1.0000000000000E-02  2.1734201070321E-03 -9.6664343983599E-04
     3  2.0000000000000E-02  8.6854176938967E-03 -3.8606917555711E-03
     4  3.0000000000000E-02  1.9511124211609E-02 -8.6643412223360E-03
     5  4.0000000000000E-02  3.4608828919956E-02 -1.5347402002452E-02
     6  5.0000000000000E-02  5.3919600310367E-02 -2.3866553009306E-02
     7  6.0000000000000E-02  7.7366787856005E-02 -3.4164358214755E-02
     8  7.0000000000000E-02  1.0485543455062E-01 -4.6168101325996E-02
     9  8.0000000000000E-02  1.3627163759311E-01 -5.9788508439284E-02
    10  9.0000000000000E-02  1.7148190018923E-01 -7.4918438427185E-02
    11  1.0000000000000E-01  2.1033252157424E-01 -9.1431628041914E-02
    12  1.1000000000000E-01  2.5264907485129E-01 -1.0918158271635E-01
    13  1.2000000000000E-01  2.9823602298339E-01 -1.2800070461991E-01
    14  1.3000000000000E-01  3.4687652221833E-01 -1.4769974659078E-01
    15  1.4000000000000E-01  3.9833245936793E-01 -1.6806767414656E-01
    16  1.5000000000000E-01  4.5234476476350E-01 -1.8887200801049E-01
    17  1.6000000000000E-01  5.0863403648221E-01 -2.0985970673534E-01
    18  1.7000000000000E-01  5.6690150374913E-01 -2.3075863341588E-01
    19  1.8000000000000E-01  6.2683034847802E-01 -2.5127963260419E-01
    20  1.9000000000000E-01  6.8808739397839E-01 -2.7111922391764E-01
    21  2.0000000000000E-01  7.5032515921034E-01 -2.8996289805050E-01
    22  2.1000000000000E-01  8.1318426593276E-01 -3.0748897962390E-01
    23  2.2000000000000E-01  8.7629617499218E-01 -3.2337300020857E-01
    24  2.3000000000000E-01  9.3928621718216E-01 -3.3729250462381E-01
    25  2.4000000000000E-01  1.0017768739020E+00 -3.4893219493230E-01
    26  2.5000000000000E-01  1.0633912535852E+00 -3.5798930005810E-01
    27  2.6000000000000E-01  1.1237567018561E+00 -3.6417904525253E-01
    28  2.7000000000000E-01  1.1825084768771E+00 -3.6724008524005E-01
    29  2.8000000000000E-01  1.2392934166065E+00 -3.6693975823053E-01
    30  2.9000000000000E-01  1.2937735218753E+00 -3.6307901541727E-01
    31  3.0000000000000E-01  1.3456293784530E+00 -3.5549688231001E-01
    32  3.1000000000000E-01  1.3945633426729E+00 -3.4407431436941E-01
    33  3.2000000000000E-01  1.4403024187435E+00 -3.2873731988285E-01
    34  3.3000000000000E-01  1.4826007615379E+00 -3.0945923767773E-01
    35  3.4000000000000E-01  1.5212417463136E+00 -2.8626207581757E-01
    36  3.5000000000000E-01  1.5560395562980E+00 -2.5921683944351E-01
    37  3.6000000000000E-01  1.5868402501638E+00 -2.2844280087951E-01
    38  3.7000000000000E-01  1.6135222838205E+00 -1.9410569237853E-01
    39  3.8000000000000E-01  1.6359964743574E+00 -1.5641483072836E-01
    40  3.9000000000000E-01  1.6542054080271E+00 -1.1561921257915E-01
    41  4.0000000000000E-01  1.6681223084740E+00 -7.2002648965286E-02
    42  4.1000000000000E-01  1.6777493955972E+00 -2.5878036223636E-02
    43  4.2000000000000E-01  1.6831157790888E+00  2.2419112493130E-02
    44  4.3000000000000E-01  1.6842749434083E+00  7.2537726470331E-02
    45  4.4000000000000E-01  1.6813018923736E+00  1.2411865770574E-01
    46  4.5000000000000E-01  1.6742900313133E+00  1.7680239538342E-01
    47  4.6000000000000E-01  1.6633478725274E+00  2.3023681528903E-01
    48  4.7000000000000E-01  1.6485956553893E+00  2.8408475760521E-01
    49  4.8000000000000E-01  1.6301619755759E+00  3.3803122471583E-01
    50  4.9000000000000E-01  1.6081805185082E+00  3.9178999455191E-01
    51  5.0000000000000E-01  1.5827869900386E+00  4.4510945469355E-01
    52  5.1000000000000E-01  1.5541163327393E+00  4.9777747780959E-01
    53  5.2000000000000E-01  1.5223003088984E+00  5.4962517981429E-01
    54  5.3000000000000E-01  1.4874655216657E+00  6.0052942794050E-01
    55  5.4000000000000E-01  1.4497319339148E+00  6.5041399620908E-01
    56  5.5000000000000E-01  1.4092119305941E+00  6.9924929981995E-01
    57  5.6000000000000E-01  1.3660099549564E+00  7.4705067698110E-01
    58  5.7000000000000E-01  1.3202227324769E+00  7.9387522570664E-01
    59  5.8000000000000E-01  1.2719400789256E+00  8.3981724315436E-01
    60  5.9000000000000E-01  1.2212462714118E+00  8.8500235508027E-01
    61  6.0000000000000E-01  1.1682219437397E+00  9.2958046188117E-01
    62  6.1000000000000E-01  1.1129464506032E+00  9.7371766439548E-01
    63  6.2000000000000E-01  1.0555006294615E+00  1.0175873660867E+00
    64  6.3000000000000E-01  9.9596987485009E-01  1.0613607774539E+00
    65  6.4000000000000E-01  9.3444742781156E-01  1.1051970725930E+00
    66  6.5000000000000E-01  8.7103777344459E-01  1.1492334659886E+00
    67  6.6000000000000E-01  8.0586003261122E-01  1.1935754891878E+00
    68  6.7000000000000E-01  7.3905122984579E-01  1.2382877515067E+00
    69  6.8000000000000E-01  6.7076931867090E-01  1.2833854660292E+00
    70  6.9000000000000E-01  6.0119584793965E-01  1.3288270117328E+00
    71  7.0000000000000E-01  5.3053815851052E-01  1.3745077846933E+00
    72  7.1000000000000E-01  4.5903100844764E-01  1.4202555662294E+00
    73  7.2000000000000E-01  3.8693753687286E-01  1.4658276040033E+00
    74  7.3000000000000E-01  3.1454949133222E-01  1.5109095641454E+00
    75  7.4000000000000E-01  2.4218666076079E-01  1.5551164692258E+00
    76  7.5000000000000E-01  1.7019547544454E-01  1.5979956893310E+00
    77  7.6000000000000E-01  9.8946756326351E-02  1.6390320027341E+00
    78  7.7000000000000E-01  2.8832618082982E-02  1.6776546898852E+00
    79  7.8000000000000E-01 -3.9737446944228E-02  1.7132465709902E+00
    80  7.9000000000000E-01 -1.0634125422118E-01  1.7451548446551E+00
    81  8.0000000000000E-01 -1.7054931007649E-01  1.7727035342903E+00
    82  8.1000000000000E-01 -2.3193079961698E-01  1.7952073015541E+00
    83  8.2000000000000E-01 -2.9006006761182E-01  1.8119863433468E+00
    84  8.3000000000000E-01 -3.4452346355948E-01  1.8223820519447E+00
    85  8.4000000000000E-01 -3.9492640801636E-01  1.8257730878702E+00
    86  8.5000000000000E-01 -4.4090052631672E-01  1.8215914929473E+00
    87  8.6000000000000E-01 -4.8211068840407E-01  1.8093384574476E+00
    88  8.7000000000000E-01 -5.1826178989458E-01  1.7885993508348E+00
    89  8.8000000000000E-01 -5.4910510988359E-01  1.7590576306971E+00
    90  8.9000000000000E-01 -5.7444408546663E-01  1.7205072591140E+00
    91  9.0000000000000E-01 -5.9413935145820E-01  1.6728632798076E+00
    92  9.1000000000000E-01 -6.0811290623231E-01  1.6161702425958E+00
    93  9.2000000000000E-01 -6.1635128075360E-01  1.5506082032895E+00
    94  9.3000000000000E-01 -6.1890760739838E-01  1.4764960764347E+00
    95  9.4000000000000E-01 -6.1590250766966E-01  1.3942921741493E+00
    96  9.5000000000000E-01 -6.0752374289531E-01  1.3045918255379E+00
    97  9.6000000000000E-01 -5.9402459890409E-01  1.2081220363996E+00
    98  9.7000000000000E-01 -5.7572100387928E-01  1.1057332166987E+00
    99  9.8000000000000E-01 -5.5298740742538E-01  9.9838807192404E-01
   100  9.9000000000000E-01 -5.2625147767991E-01  8.8714782244702E-01
   101  1.0000000000000E+00 -4.9598770133717E-01  7.7315598058747E-01
   102  1.0100000000000E+00 -4.6270999804610E-01  6.5761997672624E-01
   103  1.0200000000000E+00 -4.2696348513672E-01  5.4179098192758E-01
   104  1.0300000000000E+00 -3.8931555039450E-01  4.2694232370316E-01
   105  1.0400000000000E+00 -3.5034640905622E-01  3.1434693244053E-01
   106  1.0500000000000E+00 -3.1063933588141E-01  2.0525428758332E-01
   107  1.0600000000000E+00 -2.7077077363043E-01  1.0086735392877E-01
   108  1.0700000000000E+00 -2.3130052524634E-01  2.3200087508123E-03
   109  1.0800000000000E+00 -1.9276223830185E-01 -8.9344540540350E-02
   110  1.0900000000000E+00 -1.5565438671927E-01 -1.7319386101355E-01
   111  1.1000000000000E+00 -1.2043194646025E-01 -2.4842445776486E-01
   112  1.1100000000000E+00 -8.7498948883054E-02 -3.1437756799608E-01
   113  1.1200000000000E+00 -5.7202078158470E-02 -3.7055220226826E-01
   114  1.1300000000000E+00 -2.9825457673306E-02 -4.1661510434085E-01
   115  1.1400000000000E+00 -5.5867455026399E-03 -4.5240736356376E-01
   116  1.1500000000000E+00  1.5365369056714E-02 -4.7794748379677E-01
   117  1.1600000000000E+00  3.2952206099024E-02 -4.9343078750738E-01
   118  1.1700000000000E+00  4.7164643256998E-02 -4.9922511275296E-01
   119  1.1800000000000E+00  5.8061174607224E-02 -4.9586284095988E-01
   120  1.1900000000000E+00  6.5764516752350E-02 -4.8402937401050E-01
   121  1.2000000000000E+00  7.0456831637030E-02 -4.6454825992635E-01
   122  1.2100000000000E+00  7.2373663062913E-02 -4.3836322861904E-01
   123  1.2200000000000E+00  7.1797078943267E-02 -4.0651870134758E-01
   124  1.2300000000000E+00  6.9049288643186E-02 -3.7014281119344E-01
   125  1.2400000000000E+00  6.4484924726216E-02 -3.3042652613988E-01
   126  1.2500000000000E+00  5.8481842318115E-02 -2.8859839856871E-01
   127  1.2600000000000E+00  5.1431503553637E-02 -2.4589845266702E-01
   128  1.2700000000000E+00  4.3729181489689E-02 -2.0355180491345E-01
   129  1.2800000000000E+00  3.5764192896181E-02 -1.6274256682680E-01
   130  1.2900000000000E+00  2.7910850983408E-02 -1.2458934521028E-01
   131  1.3000000000000E+00  2.0520823837008E-02 -9.0123824200648E-02
   132  1.3100000000000E+00  1.3910563139864E-02 -6.0261851622421E-02
   133  1.3200000000000E+00  8.3556695135043E-03 -3.5786573862155E-02
   134  1.3300000000000E+00  4.0857398166954E-03 -1.7335538385850E-02
   135  1.3400000000000E+00  1.2687624731673E-03 -5.3432883861770E-03
   136  1.3500000000000E+00  7.5660535066765E-05 -3.1661417139830E-04
   137  1.3600000000000E+00 -3.9553880364836E-06  1.6499494906474E-05
   138  1.3700000000000E+00 -7.4389007035796E-07  3.1237606703533E-06
   139  1.38  0. -0.
   140  1.39  0.  0.
   141  1.40  0.  0.
   142  1.41  0.  0.
   143  1.42  0.  0.
   144  1.43  0.  0.
   145  1.44  0.  0.
   146  1.45  0.  0.
   147  1.46  0.  0.
   148  1.47  0.  0.
   149  1.48  0.  0.
   150  1.49  0.  0.
   151  1.50  0.  0.
   152  1.51  0.  0.
   153  1.52  0.  0.
   154  1.53  0.  0.
   155  1.54  0.  0.
   156  1.55  0.  0.
   157  1.56  0.  0.
   158  1.57  0.  0.
   159  1.58  0.  0.
   160  1.59  0.  0.
   161  1.60  0.  0.
   162  1.61  0.  0.
   163  1.62  0.  0.
   164  1.63  0.  0.
   165  1.64  0.  0.
   166  1.65  0.  0.
   167  1.66  0.  0.
   168  1.67  0.  0.
   169  1.68  0.  0.
   170  1.69  0.  0.
   171  1.70  0.  0.
   172  1.71  0.  0.
   173  1.72  0.  0.
   174  1.73  0.  0.
   175  1.74  0.  0.
   176  1.75  0.  0.
   177  1.76  0.  0.
   178  1.77  0.  0.
   179  1.78  0.  0.
   180  1.79  0.  0.
   181  1.80  0.  0.
   182  1.81  0.  0.
   183  1.82  0.  0.
   184  1.83  0.  0.
   185  1.84  0.  0.
   186  1.85  0.  0.
   187  1.86  0.  0.
   188  1.87  0.  0.
   189  1.88  0.  0.
   190  1.89  0.  0.
   191  1.90  0.  0.
   192  1.91  0.  0.
   193  1.92  0.  0.
   194  1.93  0.  0.
   195  1.94  0.  0.
   196  1.95  0.  0.
   197  1.96  0.  0.