O     ONCVPSP-4.0.1  r_core=   1.35246   1.45312   1.25127
      8.0000      6.0000      211017    zatom,zion,pspd
     8      11   2     4   600     0    pspcod,pspxc,lmax,lloc,mmax,r2well
  5.99000000  4.00000000  0.00000000    rchrg fchrg qchrg
     2     2     1     0     0    nproj
     1     1           extension_switch
   0                         5.9374731535537E+00  7.8629543913766E-01
     1  0.0000000000000E+00  2.5648144719170E-09 -5.6799566994226E-09
     2  1.0000000000000E-02  9.0737059843926E-02 -2.6492064608872E-02
     3  2.0000000000000E-02  1.8122470053351E-01 -5.2781537178647E-02
     4  3.0000000000000E-02  2.7121372740470E-01 -7.8665651617117E-02
     5  4.0000000000000E-02  3.6045541526999E-01 -1.0394133832702E-01
     6  5.0000000000000E-02  4.4870179370958E-01 -1.2840518243139E-01
     7  6.0000000000000E-02  5.3570599112073E-01 -1.5185350974478E-01
     8  7.0000000000000E-02  6.2122265399141E-01 -1.7408263615361E-01
     9  8.0000000000000E-02  7.0500845529946E-01 -1.9488931038864E-01
    10  9.0000000000000E-02  7.8682270286622E-01 -2.1407137337846E-01
    11  1.0000000000000E-01  8.6642805499715E-01 -2.3142864965564E-01
    12  1.1000000000000E-01  9.4359134691853E-01 -2.4676407786713E-01
    13  1.2000000000000E-01  1.0180845274733E+00 -2.5988507855736E-01
    14  1.3000000000000E-01  1.0896857013839E+00 -2.7060514830199E-01
    15  1.4000000000000E-01  1.1581802682404E+00 -2.7874566023718E-01
    16  1.5000000000000E-01  1.2233621453484E+00 -2.8413784231875E-01
    17  1.6000000000000E-01  1.2850350577842E+00 -2.8662489651721E-01
    18  1.7000000000000E-01  1.3430138755695E+00 -2.8606421485803E-01
    19  1.8000000000000E-01  1.3971259748928E+00 -2.8232964197748E-01
    20  1.9000000000000E-01  1.4472125978637E+00 -2.7531372888838E-01
    21  2.0000000000000E-01  1.4931301834678E+00 -2.6492991910852E-01
    22  2.1000000000000E-01  1.5347516412531E+00 -2.5111460633242E-01
    23  2.2000000000000E-01  1.5719675388822E+00 -2.3382900252355E-01
    24  2.3000000000000E-01  1.6046871750330E+00 -2.1306075671866E-01
    25  2.4000000000000E-01  1.6328395102643E+00 -1.8882526798013E-01
    26  2.5000000000000E-01  1.6563739303355E+00 -1.6116664076672E-01
    27  2.6000000000000E-01  1.6752608190833E+00 -1.3015823743386E-01
    28  2.7000000000000E-01  1.6894919212331E+00 -9.5902790495961E-02
    29  2.8000000000000E-01  1.6990804794173E+00 -5.8532046514563E-02
    30  2.9000000000000E-01  1.7040611340768E+00 -1.8205923809838E-02
    31  3.0000000000000E-01  1.7044895797558E+00  2.4888822610211E-02
    32  3.1000000000000E-01  1.7004419764365E+00  7.0540423718866E-02
    33  3.2000000000000E-01  1.6920141198863E+00  1.1851438945960E-01
    34  3.3000000000000E-01  1.6793203803691E+00  1.6855624268443E-01
    35  3.4000000000000E-01  1.6624924243759E+00  2.2039465289010E-01
    36  3.5000000000000E-01  1.6416777391215E+00  2.7374491744443E-01
    37  3.6000000000000E-01  1.6170379842997E+00  3.2831272776538E-01
    38  3.7000000000000E-01  1.5887471998725E+00  3.8379814889728E-01
    39  3.8000000000000E-01  1.5569899023574E+00  4.3989973338841E-01
    40  3.9000000000000E-01  1.5219591050878E+00  4.9631868453988E-01
    41  4.0000000000000E-01  1.4838543001420E+00  5.5276298016610E-01
    42  4.1000000000000E-01  1.4428794410166E+00  6.0895136613178E-01
    43  4.2000000000000E-01  1.3992409655912E+00  6.6461712921773E-01
    44  4.3000000000000E-01  1.3531458984714E+00  7.1951156136773E-01
    45  4.4000000000000E-01  1.3048000703950E+00  7.7340703208752E-01
    46  4.5000000000000E-01  1.2544064900512E+00  8.2609959264688E-01
    47  4.6000000000000E-01  1.2021639004407E+00  8.7741104467210E-01
    48  4.7000000000000E-01  1.1482655478437E+00  9.2719041654705E-01
    49  4.8000000000000E-01  1.0928981866529E+00  9.7531480355691E-01
    50  4.9000000000000E-01  1.0362413378638E+00  1.0216895416520E+00
    51  5.0000000000000E-01  9.7846681301532E-01  1.0662476997852E+00
    52  5.1000000000000E-01  9.1973850897489E-01  1.1089488916484E+00
    53  5.2000000000000E-01  8.6021247230564E-01  1.1497774239506E+00
    54  5.3000000000000E-01  8.0003722519674E-01  1.1887398147527E+00
    55  5.4000000000000E-01  7.3935433824179E-01  1.2258617314231E+00
    56  5.5000000000000E-01  6.7829922887522E-01  1.2611844131081E+00
    57  5.6000000000000E-01  6.1700215818381E-01  1.2947606568371E+00
    58  5.7000000000000E-01  5.5558939325570E-01  1.3266504591382E+00
    59  5.8000000000000E-01  4.9418449735481E-01  1.3569164159934E+00
    60  5.9000000000000E-01  4.3290970614934E-01  1.3856189927861E+00
    61  6.0000000000000E-01  3.7188734509167E-01  1.4128117823521E+00
    62  6.1000000000000E-01  3.1124124094148E-01  1.4385368730925E+00
    63  6.2000000000000E-01  2.5109807941613E-01  1.4628204502115E+00
    64  6.3000000000000E-01  1.9158866109280E-01  1.4856687513847E+00
    65  6.4000000000000E-01  1.3284900899844E-01  1.5070644935172E+00
    66  6.5000000000000E-01  7.5021283803089E-02  1.5269638797497E+00
    67  6.6000000000000E-01  1.8254466147729E-02  1.5452942856045E+00
    68  6.7000000000000E-01 -3.7295229666898E-02  1.5619527103009E+00
    69  6.8000000000000E-01 -9.1464240715586E-02  1.5768050640375E+00
    70  6.9000000000000E-01 -1.4408186271913E-01  1.5896863447245E+00
    71  7.0000000000000E-01 -1.9497079573408E-01  1.6004017385888E+00
    72  7.1000000000000E-01 -2.4394803651990E-01  1.6087286586668E+00
    73  7.2000000000000E-01 -2.9082611748240E-01  1.6144197138604E+00
    74  7.3000000000000E-01 -3.3541468348757E-01  1.6172065794355E+00
    75  7.4000000000000E-01 -3.7752238917794E-01  1.6168047180494E+00
    76  7.5000000000000E-01 -4.1695909090400E-01  1.6129188791181E+00
    77  7.6000000000000E-01 -4.5353829920632E-01  1.6052492840462E+00
    78  7.7000000000000E-01 -4.8707985014051E-01  1.5934983860305E+00
    79  7.8000000000000E-01 -5.1741274681965E-01  1.5773780762711E+00
    80  7.9000000000000E-01 -5.4437811652649E-01  1.5566171938929E+00
    81  8.0000000000000E-01 -5.6783222378322E-01  1.5309691850907E+00
    82  8.1000000000000E-01 -5.8764947599252E-01  1.5002197482757E+00
    83  8.2000000000000E-01 -6.0372535579769E-01  1.4641942965948E+00
    84  8.3000000000000E-01 -6.1597921323442E-01  1.4227650673104E+00
    85  8.4000000000000E-01 -6.2435685112167E-01  1.3758577092946E+00
    86  8.5000000000000E-01 -6.2883283898809E-01  1.3234571853494E+00
    87  8.6000000000000E-01 -6.2941249414815E-01  1.2656128351860E+00
    88  8.7000000000000E-01 -6.2613347328823E-01  1.2024424575597E+00
    89  8.8000000000000E-01 -6.1906692402613E-01  1.1341352860747E+00
    90  8.9000000000000E-01 -6.0831815326462E-01  1.0609537522648E+00
    91  9.0000000000000E-01 -5.9402677763778E-01  9.8323395138668E-01
    92  9.1000000000000E-01 -5.7636633078921E-01  9.0138475051650E-01
    93  9.2000000000000E-01 -5.5554331243796E-01  8.1588550454816E-01
    94  9.3000000000000E-01 -5.3179567497939E-01  7.2728237304184E-01
    95  9.4000000000000E-01 -5.0539075451226E-01  6.3618325900454E-01
    96  9.5000000000000E-01 -4.7662266444889E-01  5.4325141901904E-01
    97  9.6000000000000E-01 -4.4580918101323E-01  4.4919782207732E-01
    98  9.7000000000000E-01 -4.1328816072317E-01  3.5477236142263E-01
    99  9.8000000000000E-01 -3.7941354014895E-01  2.6075404906643E-01
   100  9.9000000000000E-01 -3.4455097761799E-01  1.6794034587405E-01
   101  1.0000000000000E+00 -3.0907320487619E-01  7.7135800660523E-02
   102  1.0100000000000E+00 -2.7335516382714E-01 -1.0859810862006E-02
   103  1.0200000000000E+00 -2.3776900918290E-01 -9.5263642607853E-02
   104  1.0300000000000E+00 -2.0267906202600E-01 -1.7532201552074E-01
   105  1.0400000000000E+00 -1.6843680178909E-01 -2.5032251554330E-01
   106  1.0500000000000E+00 -1.3537598493154E-01 -3.1960573048865E-01
   107  1.0600000000000E+00 -1.0380797757693E-01 -3.8257640728898E-01
   108  1.0700000000000E+00 -7.4017386581058E-02 -4.3871381869567E-01
   109  1.0800000000000E+00 -4.6258068938336E-02 -4.8758114052159E-01
   110  1.0900000000000E+00 -2.0749593189568E-02 -5.2883365673055E-01
   111  1.1000000000000E+00  2.3257813289146E-03 -5.6222562981585E-01
   112  1.1100000000000E+00  2.2825550845362E-02 -5.8761569768801E-01
   113  1.1200000000000E+00  4.0648793091406E-02 -6.0497068509907E-01
   114  1.1300000000000E+00  5.5737338447950E-02 -6.1436774724663E-01
   115  1.1400000000000E+00  6.8076264344114E-02 -6.1599479465828E-01
   116  1.1500000000000E+00  7.7693704084018E-02 -6.1014918163978E-01
   117  1.1600000000000E+00  8.4659974627244E-02 -5.9723467424629E-01
   118  1.1700000000000E+00  8.9086041399375E-02 -5.7775674785110E-01
   119  1.1800000000000E+00  9.1121351439391E-02 -5.5231629763583E-01
   120  1.1900000000000E+00  9.0951079222989E-02 -5.2160187813685E-01
   121  1.2000000000000E+00  8.8792840104398E-02 -4.8638061353501E-01
   122  1.2100000000000E+00  8.4892945794098E-02 -4.4748797499169E-01
   123  1.2200000000000E+00  7.9521480084958E-02 -4.0581408060691E-01
   124  1.2300000000000E+00  7.2963858736804E-02 -3.6227920963154E-01
   125  1.2400000000000E+00  6.5513393215607E-02 -3.1781311128681E-01
   126  1.2500000000000E+00  5.7465665201612E-02 -2.7334034071813E-01
   127  1.2600000000000E+00  4.9112901560908E-02 -2.2976565328878E-01
   128  1.2700000000000E+00  4.0738422915456E-02 -1.8795964751729E-01
   129  1.2800000000000E+00  3.2611295947758E-02 -1.4874486879974E-01
   130  1.2900000000000E+00  2.4980451961286E-02 -1.1288259283519E-01
   131  1.3000000000000E+00  1.8067817262640E-02 -8.1059043801039E-02
   132  1.3100000000000E+00  1.2071463444284E-02 -5.3875891216940E-02
   133  1.3200000000000E+00  7.1582301300739E-03 -3.1842646819354E-02
   134  1.3300000000000E+00  3.4602807556414E-03 -1.5370539665719E-02
   135  1.3400000000000E+00  1.0636633793476E-03 -4.7264999300329E-03
   136  1.3500000000000E+00  6.2801740105376E-05 -2.7969870135678E-04
   137  1.3600000000000E+00 -3.2668933178329E-06  1.4561664393920E-05
   138  1.3700000000000E+00 -6.2084517153786E-07  2.7609311746036E-06
   139  1.3800 -0.  0.
   140  1.3900  0.  0.
   141  1.4000  0.  0.
   142  1.4100  0.  0.
   143  1.4200  0.  0.
   144  1.4300  0.  0.
   145  1.4400  0.  0.
   146  1.4500  0.  0.
   147  1.4600  0.  0.
   148  1.4700  0.  0.
   149  1.4800  0.  0.
   150  1.4900  0.  0.
   151  1.5000  0.  0.
   152  1.5100  0.  0.
   153  1.5200  0.  0.
   154  1.5300  0.  0.
   155  1.5400  0.  0.
   156  1.5500  0.  0.
   157  1.5600  0.  0.
   158  1.5700  0.  0.
   159  1.5800  0.  0.
   160  1.5900  0.  0.
   161  1.6000  0.  0.
   162  1.6100  0.  0.
   163  1.6200  0.  0.
   164  1.6300  0.  0.
   165  1.6400  0.  0.
   166  1.6500  0.  0.
   167  1.6600  0.  0.
   168  1.6700  0.  0.
   169  1.6800  0.  0.
   170  1.6900  0.  0.
   171  1.7000  0.  0.
   172  1.7100  0.  0.
   173  1.7200  0.  0.
   174  1.7300  0.  0.
   175  1.7400  0.  0.
   176  1.7500  0.  0.
   177  1.7600  0.  0.
   178  1.7700  0.  0.
   179  1.7800  0.  0.
   180  1.7900  0.  0.
   181  1.8000  0.  0.
   182  1.8100  0.  0.
   183  1.8200  0.  0.
   184  1.8300  0.  0.
   185  1.8400  0.  0.
   186  1.8500  0.  0.
   187  1.8600  0.  0.
   188  1.8700  0.  0.
   189  1.8800  0.  0.
   190  1.8900  0.  0.
   191  1.9000  0.  0.
   192  1.9100  0.  0.
   193  1.9200  0.  0.
   194  1.9300  0.  0.
   195  1.9400  0.  0.
   196  1.9500  0.  0.
   197  1.9600  0.  0.
   198  1.9700  0.  0.
   199  1.9800  0.  0.
   200  1.9900  0.  0.
   201  2.0000  0.  0.
   202  2.0100  0.  0.
   203  2.0200  0.  0.
   204  2.0300  0.  0.
   205  2.0400  0.  0.
   206  2.0500  0.  0.
   207  2.0600  0.  0.
   208  2.0700  0.  0.
   209  2.0800  0.  0.
   210  2.0900  0.  0.
   211  2.1000  0.  0.
   212  2.1100  0.  0.
   213  2.1200  0.  0.
   214  2.1300  0.  0.
   215  2.1400  0.  0.
   216  2.1500  0.  0.
   217  2.1600  0.  0.
   218  2.1700  0.  0.
   219  2.1800  0.  0.
   220  2.1900  0.  0.
   221  2.2000  0.  0.
   222  2.2100  0.  0.
   223  2.2200  0.  0.
   224  2.2300  0.  0.
   225  2.2400  0.  0.
   226  2.2500  0.  0.
   227  2.2600  0.  0.
   228  2.2700  0.  0.
   229  2.2800  0.  0.
   230  2.2900  0.  0.
   231  2.3000  0.  0.
   232  2.3100  0.  0.
   233  2.3200  0.  0.
   234  2.3300  0.  0.
   235  2.3400  0.  0.
   236  2.3500  0.  0.
   237  2.3600  0.  0.
   238  2.3700  0.  0.
   239  2.3800  0.  0.
   240  2.3900  0.  0.
   241  2.4000  0.  0.
   242  2.4100  0.  0.
   243  2.4200  0.  0.
   244  2.4300  0.  0.
   245  2.4400  0.  0.
   246  2.4500  0.  0.
   247  2.4600  0.  0.
   248  2.4700  0.  0.
   249  2.4800  0.  0.
   250  2.4900  0.  0.
   251  2.5000  0.  0.
   252  2.5100  0.  0.
   253  2.5200  0.  0.
   254  2.5300  0.  0.
   255  2.5400  0.  0.
   256  2.5500  0.  0.
   257  2.5600  0.  0.
   258  2.5700  0.  0.
   259  2.5800  0.  0.
   260  2.5900  0.  0.
   261  2.6000  0.  0.
   262  2.6100  0.  0.
   263  2.6200  0.  0.
   264  2.6300  0.  0.
   265  2.6400  0.  0.
   266  2.6500  0.  0.
   267  2.6600  0.  0.
   268  2.6700  0.  0.
   269  2.6800  0.  0.
   270  2.6900  0.  0.
   271  2.7000  0.  0.
   272  2.7100  0.  0.
   273  2.7200  0.  0.
   274  2.7300  0.  0.
   275  2.7400  0.  0.
   276  2.7500  0.  0.
   277  2.7600  0.  0.
   278  2.7700  0.  0.
   279  2.7800  0.  0.
   280  2.7900  0.  0.
   281  2.8000  0.  0.
   282  2.8100  0.  0.
   283  2.8200  0.  0.
   284  2.8300  0.  0.
   285  2.8400  0.  0.
   286  2.8500  0.  0.
   287  2.8600  0.  0.
   288  2.8700  0.  0.
   289  2.8800  0.  0.
   290  2.8900  0.  0.
   291  2.9000  0.  0.
   292  2.9100  0.  0.
   293  2.9200  0.  0.
   294  2.9300  0.  0.
   295  2.9400  0.  0.
   296  2.9500  0.  0.
   297  2.9600  0.  0.
   298  2.9700  0.  0.
   299  2.9800  0.  0.
   300  2.9900  0.  0.
   301  3.0000  0.  0.
   302  3.0100  0.  0.
   303  3.0200  0.  0.
   304  3.0300  0.  0.
   305  3.0400  0.  0.
   306  3.0500  0.  0.
   307  3.0600  0.  0.
   308  3.0700  0.  0.
   309  3.0800  0.  0.
   310  3.0900  0.  0.
   311  3.1000  0.  0.
   312  3.1100  0.  0.
   313  3.1200  0.  0.
   314  3.1300  0.  0.
   315  3.1400  0.  0.
   316  3.1500  0.  0.
   317  3.1600  0.  0.
   318  3.1700  0.  0.
   319  3.1800  0.  0.
   320  3.1900  0.  0.
   321  3.2000  0.  0.
   322  3.2100  0.  0.
   323  3.2200  0.  0.
   324  3.2300  0.  0.
   325  3.2400  0.  0.
   326  3.2500  0.  0.
   327  3.2600  0.  0.
   328  3.2700  0.  0.
   329  3.2800  0.  0.
   330  3.2900  0.  0.
   331  3.3000  0.  0.
   332  3.3100  0.  0.
   333  3.3200  0.  0.
   334  3.3300  0.  0.
   335  3.3400  0.  0.
   336  3.3500  0.  0.
   337  3.3600  0.  0.
   338  3.3700  0.  0.
   339  3.3800  0.  0.
   340  3.3900  0.  0.
   341  3.4000  0.  0.
   342  3.4100  0.  0.
   343  3.4200  0.  0.
   344  3.4300  0.  0.
   345  3.4400  0.  0.
   346  3.4500  0.  0.
   347  3.4600  0.  0.
   348  3.4700  0.  0.
   349  3.4800  0.  0.
   350  3.4900  0.  0.
   351  3.5000  0.  0.
   352  3.5100  0.  0.
   353  3.5200  0.  0.
   354  3.5300  0.  0.
   355  3.5400  0.  0.
   356  3.5500  0.  0.
   357  3.5600  0.  0.
   358  3.5700  0.  0.
   359  3.5800  0.  0.
   360  3.5900  0.  0.
   361  3.6000  0.  0.
   362  3.6100  0.  0.
   363  3.6200  0.  0.
   364  3.6300  0.  0.
   365  3.6400  0.  0.
   366  3.6500  0.  0.
   367  3.6600  0.  0.
   368  3.6700  0.  0.
   369  3.6800  0.  0.
   370  3.6900  0.  0.
   371  3.7000  0.  0.
   372  3.7100  0.  0.
   373  3.7200  0.  0.
   374  3.7300  0.  0.
   375  3.7400  0.  0.
   376  3.7500  0.  0.
   377  3.7600  0.  0.
   378  3.7700  0.  0.
   379  3.7800  0.  0.
   380  3.7900  0.  0.
   381  3.8000  0.  0.
   382  3.8100  0.  0.
   383  3.8200  0.  0.
   384  3.8300  0.  0.
   385  3.8400  0.  0.
   386  3.8500  0.  0.
   387  3.8600  0.  0.
   388  3.8700  0.  0.
   389  3.8800  0.  0.
   390  3.8900  0.  0.
   391  3.9000  0.  0.
   392  3.9100  0.  0.
   393  3.9200  0.  0.
   394  3.9300  0.  0.
   395  3.9400  0.  0.
   396  3.9500  0.  0.
   397  3.9600  0.  0.
   398  3.9700  0.  0.
   399  3.9800  0.  0.
   400  3.9900  0.  0.
   401  4.0000  0.  0.
   402  4.0100  0.  0.
   403  4.0200  0.  0.
   404  4.0300  0.  0.
   405  4.0400  0.  0.
   406  4.0500  0.  0.
   407  4.0600  0.  0.
   408  4.0700  0.  0.
   409  4.0800  0.  0.
   410  4.0900  0.  0.
   411  4.1000  0.  0.
   412  4.1100  0.  0.
   413  4.1200  0.  0.
   414  4.1300  0.  0.
   415  4.1400  0.  0.
   416  4.1500  0.  0.
   417  4.1600  0.  0.
   418  4.1700  0.  0.
   419  4.1800  0.  0.
   420  4.1900  0.  0.
   421  4.2000  0.  0.
   422  4.2100  0.  0.
   423  4.2200  0.  0.
   424  4.2300  0.  0.
   425  4.2400  0.  0.
   426  4.2500  0.  0.
   427  4.2600  0.  0.
   428  4.2700  0.  0.
   429  4.2800  0.  0.
   430  4.2900  0.  0.
   431  4.3000  0.  0.
   432  4.3100  0.  0.
   433  4.3200  0.  0.
   434  4.3300  0.  0.
   435  4.3400  0.  0.
   436  4.3500  0.  0.
   437  4.3600  0.  0.
   438  4.3700  0.  0.
   439  4.3800  0.  0.
   440  4.3900  0.  0.
   441  4.4000  0.  0.
   442  4.4100  0.  0.
   443  4.4200  0.  0.
   444  4.4300  0.  0.
   445  4.4400  0.  0.
   446  4.4500  0.  0.
   447  4.4600  0.  0.
   448  4.4700  0.  0.
   449  4.4800  0.  0.
   450  4.4900  0.  0.
   451  4.5000  0.  0.
   452  4.5100  0.  0.
   453  4.5200  0.  0.
   454  4.5300  0.  0.
   455  4.5400  0.  0.
   456  4.5500  0.  0.
   457  4.5600  0.  0.
   458  4.5700  0.  0.
   459  4.5800  0.  0.
   460  4.5900  0.  0.
   461  4.6000  0.  0.
   462  4.6100  0.  0.
   463  4.6200  0.  0.
   464  4.6300  0.  0.
   465  4.6400  0.  0.
   466  4.6500  0.  0.
   467  4.6600  0.  0.
   468  4.6700  0.  0.
   469  4.6800  0.  0.
   470  4.6900  0.  0.
   471  4.7000  0.  0.
   472  4.7100  0.  0.
   473  4.7200  0.  0.
   474  4.7300  0.  0.
   475  4.7400  0.  0.
   476  4.7500  0.  0.
   477  4.7600  0.  0.
   478  4.7700  0.  0.
   479  4.7800  0.  0.
   480  4.7900  0.  0.
   481  4.8000  0.  0.
   482  4.8100  0.  0.
   483  4.8200  0.  0.
   484  4.8300  0.  0.
   485  4.8400  0.  0.
   486  4.8500  0.  0.
   487  4.8600  0.  0.
   488  4.8700  0.  0.
   489  4.8800  0.  0.
   490  4.8900  0.  0.
   491  4.9000  0.  0.
   492  4.9100  0.  0.
   493  4.9200  0.  0.
   494  4.9300  0.  0.
   495  4.9400  0.  0.
   496  4.9500  0.  0.
   497  4.9600  0.  0.
   498  4.9700  0.  0.
   499  4.9800  0.  0.
   500  4.9900  0.  0.
   501  5.0000  0.  0.
   502  5.0100  0.  0.
   503  5.0200  0.  0.
   504  5.0300  0.  0.
   505  5.0400  0.  0.
   506  5.0500  0.  0.
   507  5.0600  0.  0.
   508  5.0700  0.  0.
   509  5.0800  0.  0.
   510  5.0900  0.  0.
   511  5.1000  0.  0.
   512  5.1100  0.  0.
   513  5.1200  0.  0.
   514  5.1300  0.  0.
   515  5.1400  0.  0.
   516  5.1500  0.  0.
   517  5.1600  0.  0.
   518  5.1700  0.  0.
   519  5.1800  0.  0.
   520  5.1900  0.  0.
   521  5.2000  0.  0.
   522  5.2100  0.  0.
   523  5.2200  0.  0.
   524  5.2300  0.  0.
   525  5.2400  0.  0.
   526  5.2500  0.  0.
   527  5.2600  0.  0.
   528  5.2700  0.  0.
   529  5.2800  0.  0.
   530  5.2900  0.  0.
   531  5.3000  0.  0.
   532  5.3100  0.  0.
   533  5.3200  0.  0.
   534  5.3300  0.  0.
   535  5.3400  0.  0.
   536  5.3500  0.  0.
   537  5.3600  0.  0.
   538  5.3700  0.  0.
   539  5.3800  0.  0.
   540  5.3900  0.  0.
   541  5.4000  0.  0.
   542  5.4100  0.  0.
   543  5.4200  0.  0.
   544  5.4300  0.  0.
   545  5.4400  0.  0.
   546  5.4500  0.  0.
   547  5.4600  0.  0.
   548  5.4700  0.  0.
   549  5.4800  0.  0.
   550  5.4900  0.  0.
   551  5.5000  0.  0.
   552  5.5100  0.  0.
   553  5.5200  0.  0.
   554  5.5300  0.  0.
   555  5.5400  0.  0.
   556  5.5500  0.  0.
   557  5.5600  0.  0.
   558  5.5700  0.  0.
   559  5.5800  0.  0.
   560  5.5900  0.  0.
   561  5.6000  0.  0.
   562  5.6100  0.  0.
   563  5.6200  0.  0.
   564  5.6300  0.  0.
   565  5.6400  0.  0.
   566  5.6500  0.  0.
   567  5.6600  0.  0.
   568  5.6700  0.  0.
   569  5.6800  0.  0.
   570  5.6900  0.  0.
   571  5.7000  0.  0.
   572  5.7100  0.  0.
   573  5.7200  0.  0.
   574  5.7300  0.  0.
   575  5.7400  0.  0.
   576  5.7500  0.  0.
   577  5.7600  0.  0.
   578  5.7700  0.  0.
   579  5.7800  0.  0.
   580  5.7900  0.  0.
   581  5.8000  0.  0.
   582  5.8100  0.  0.
   583  5.8200  0.  0.
   584  5.8300  0.  0.
   585  5.8400  0.  0.
   586  5.8500  0.  0.
   587  5.8600  0.  0.
   588  5.8700  0.  0.
   589  5.8800  0.  0.
   590  5.8900  0.  0.
   591  5.9000  0.  0.
   592  5.9100  0.  0.
   593  5.9200  0.  0.
   594  5.9300  0.  0.
   595  5.9400  0.  0.
   596  5.9500  0.  0.
   597  5.9600  0.  0.
   598  5.9700  0.  0.
   599  5.9800  0.  0.
   600  5.9900  0.  0.
   1                        -4.6892421739572E+00 -1.1042472094893E+00
     1  0.0000000000000E+00 -2.9541714352543E-09  7.1019940553474E-09
     2  1.0000000000000E-02  2.0756377832768E-03 -8.5927628185607E-04
     3  2.0000000000000E-02  8.2944819598087E-03 -3.4336156626724E-03
     4  3.0000000000000E-02  1.8632298478979E-02 -7.7124337550706E-03
     5  4.0000000000000E-02  3.3048610716429E-02 -1.3677707788647E-02
     6  5.0000000000000E-02  5.1486576245678E-02 -2.1303419115975E-02
     7  6.0000000000000E-02  7.3872827288294E-02 -3.0554803660140E-02
     8  7.0000000000000E-02  1.0011728736705E-01 -4.1387440212740E-02
     9  8.0000000000000E-02  1.3011297964063E-01 -5.3746213593302E-02
    10  9.0000000000000E-02  1.6373584490645E-01 -6.7564195751453E-02
    11  1.0000000000000E-01  2.0084458924402E-01 -8.2761492757410E-02
    12  1.1000000000000E-01  2.4128058267256E-01 -9.9244109139361E-02
    13  1.2000000000000E-01  2.8486783096535E-01 -1.1690288307924E-01
    14  1.3000000000000E-01  3.3141304286837E-01 -1.3561254649901E-01
    15  1.4000000000000E-01  3.8070581439686E-01 -1.5523096302354E-01
    16  1.5000000000000E-01  4.3251895063322E-01 -1.7559859420169E-01
    17  1.6000000000000E-01  4.8660894354450E-01 -1.9653824025307E-01
    18  1.7000000000000E-01  5.4271662181230E-01 -2.1785509606739E-01
    19  1.8000000000000E-01  6.0056798557829E-01 -2.3933715634552E-01
    20  1.9000000000000E-01  6.5987523542152E-01 -2.6075599579253E-01
    21  2.0000000000000E-01  7.2033800088144E-01 -2.8186794134349E-01
    22  2.1000000000000E-01  7.8164476951701E-01 -3.0241564374045E-01
    23  2.2000000000000E-01  8.4347451294980E-01 -3.2213004562105E-01
    24  2.3000000000000E-01  9.0549850168729E-01 -3.4073273287762E-01
    25  2.4000000000000E-01  9.6738229587581E-01 -3.5793864566551E-01
    26  2.5000000000000E-01  1.0287878946060E+00 -3.7345911534429E-01
    27  2.6000000000000E-01  1.0893760221017E+00 -3.8700518408776E-01
    28  2.7000000000000E-01  1.1488085251747E+00 -3.9829115515184E-01
    29  2.8000000000000E-01  1.2067508528307E+00 -4.0703831407563E-01
    30  2.9000000000000E-01  1.2628745859482E+00 -4.1297875462647E-01
    31  3.0000000000000E-01  1.3168599826252E+00 -4.1585923826734E-01
    32  3.1000000000000E-01  1.3683985031379E+00 -4.1544501247806E-01
    33  3.2000000000000E-01  1.4171952775645E+00 -4.1152351151473E-01
    34  3.3000000000000E-01  1.4629714790056E+00 -4.0390786322179E-01
    35  3.4000000000000E-01  1.5054665660116E+00 -3.9244012734829E-01
    36  3.5000000000000E-01  1.5444403593067E+00 -3.7699419445645E-01
    37  3.6000000000000E-01  1.5796749201459E+00 -3.5747827988943E-01
    38  3.7000000000000E-01  1.6109762006311E+00 -3.3383695428933E-01
    39  3.8000000000000E-01  1.6381754399804E+00 -3.0605266068701E-01
    40  3.9000000000000E-01  1.6611302850168E+00 -2.7414667804330E-01
    41  4.0000000000000E-01  1.6797256179354E+00 -2.3817950209581E-01
    42  4.1000000000000E-01  1.6938740796134E+00 -1.9825062621288E-01
    43  4.2000000000000E-01  1.7035162822366E+00 -1.5449771741130E-01
    44  4.3000000000000E-01  1.7086207107080E+00 -1.0709519546964E-01
    45  4.4000000000000E-01  1.7091833180458E+00 -5.6252235870636E-02
    46  4.5000000000000E-01  1.7052268256512E+00 -2.2102298288174E-03
    47  4.6000000000000E-01  1.6967997447863E+00  5.4760253393051E-02
    48  4.7000000000000E-01  1.6839751407437E+00  1.1436294559372E-01
    49  4.8000000000000E-01  1.6668491658680E+00  1.7627973394353E-01
    50  4.9000000000000E-01  1.6455393917203E+00  2.4017481571552E-01
    51  5.0000000000000E-01  1.6201829741439E+00  3.0569907171463E-01
    52  5.1000000000000E-01  1.5909346877163E+00  3.7249457153258E-01
    53  5.2000000000000E-01  1.5579648679955E+00  4.4019912054395E-01
    54  5.3000000000000E-01  1.5214573010329E+00  5.0845075738716E-01
    55  5.4000000000000E-01  1.4816070998020E+00  5.7689211159392E-01
    56  5.5000000000000E-01  1.4386186064840E+00  6.4517453404829E-01
    57  5.6000000000000E-01  1.3927033579534E+00  7.1296191802514E-01
    58  5.7000000000000E-01  1.3440781493676E+00  7.7993413558533E-01
    59  5.8000000000000E-01  1.2929632275317E+00  8.4579002294611E-01
    60  5.9000000000000E-01  1.2395806417555E+00  9.1024985891606E-01
    61  6.0000000000000E-01  1.1841527753351E+00  9.7305729235370E-01
    62  6.1000000000000E-01  1.1269010756886E+00  1.0339806876151E+00
    63  6.2000000000000E-01  1.0680449956634E+00  1.0928138708018E+00
    64  6.3000000000000E-01  1.0078011527549E+00  1.1493762739877E+00
    65  6.4000000000000E-01  9.4638270705633E-01  1.2035124891592E+00
    66  6.5000000000000E-01  8.8399895285664E-01  1.2550912579963E+00
    67  6.6000000000000E-01  8.2085511304631E-01  1.3040039375139E+00
    68  6.7000000000000E-01  7.5715232003043E-01  1.3501624946331E+00
    69  6.8000000000000E-01  6.9308776181863E-01  1.3934970946325E+00
    70  6.9000000000000E-01  6.2885496748791E-01  1.4339533588485E+00
    71  7.0000000000000E-01  5.6464420241334E-01  1.4714893756744E+00
    72  7.1000000000000E-01  5.0064294063377E-01  1.5060725556238E+00
    73  7.2000000000000E-01  4.3703637954670E-01  1.5376764257786E+00
    74  7.3000000000000E-01  3.7400796087243E-01  1.5662774612052E+00
    75  7.4000000000000E-01  3.1173986153304E-01  1.5918520507942E+00
    76  7.5000000000000E-01  2.5041341877796E-01  1.6143736924352E+00
    77  7.6000000000000E-01  1.9020945554745E-01  1.6338105074983E+00
    78  7.7000000000000E-01  1.3130847467345E-01  1.6501231573389E+00
    79  7.8000000000000E-01  7.3890694020580E-02  1.6632632351078E+00
    80  7.9000000000000E-01  1.8135898996800E-02  1.6731721947287E+00
    81  8.0000000000000E-01 -3.5776906082794E-02  1.6797808657345E+00
    82  8.1000000000000E-01 -8.7670060625846E-02  1.6830095880216E+00
    83  8.2000000000000E-01 -1.3736803107863E-01  1.6827689848104E+00
    84  8.3000000000000E-01 -1.8469841512487E-01  1.6789613755487E+00
    85  8.4000000000000E-01 -2.2949316028121E-01  1.6714828135388E+00
    86  8.5000000000000E-01 -2.7158998369471E-01  1.6602257161136E+00
    87  8.6000000000000E-01 -3.1083397337734E-01  1.6450820386278E+00
    88  8.7000000000000E-01 -3.4707934484588E-01  1.6259469277713E+00
    89  8.8000000000000E-01 -3.8019132133157E-01  1.6027227751496E+00
    90  8.9000000000000E-01 -4.1004810053494E-01  1.5753235790618E+00
    91  9.0000000000000E-01 -4.3654286646701E-01  1.5436795113057E+00
    92  9.1000000000000E-01 -4.5958580136452E-01  1.5077415769220E+00
    93  9.2000000000000E-01 -4.7910605009921E-01  1.4674862483440E+00
    94  9.3000000000000E-01 -4.9505358800624E-01  1.4229199516175E+00
    95  9.4000000000000E-01 -5.0740094269584E-01  1.3740832813703E+00
    96  9.5000000000000E-01 -5.1614472122323E-01  1.3210548231088E+00
    97  9.6000000000000E-01 -5.2130689598353E-01  1.2639544662290E+00
    98  9.7000000000000E-01 -5.2293580585694E-01  1.2029460988012E+00
    99  9.8000000000000E-01 -5.2110683340683E-01  1.1382395856089E+00
   100  9.9000000000000E-01 -5.1592272426517E-01  1.0700919439207E+00
   101  1.0000000000000E+00 -5.0751352112503E-01  9.9880764680404E-01
   102  1.0100000000000E+00 -4.9603609188119E-01  9.2473800116097E-01
   103  1.0200000000000E+00 -4.8167323927720E-01  8.4827956672690E-01
   104  1.0300000000000E+00 -4.6463238777488E-01  7.6987160264929E-01
   105  1.0400000000000E+00 -4.4514385207618E-01  6.8999254949551E-01
   106  1.0500000000000E+00 -4.2345870062314E-01  6.0915557620489E-01
   107  1.0600000000000E+00 -3.9984623628763E-01  5.2790324312903E-01
   108  1.0700000000000E+00 -3.7459112512198E-01  4.4680135336752E-01
   109  1.0800000000000E+00 -3.4799021231681E-01  3.6643208472024E-01
   110  1.0900000000000E+00 -3.2034907217557E-01  2.8738651318698E-01
   111  1.1000000000000E+00 -2.9197834581239E-01  2.1025665567499E-01
   112  1.1100000000000E+00 -2.6318992624217E-01  1.3562717401962E-01
   113  1.1200000000000E+00 -2.3429305539522E-01  6.4066894178751E-02
   114  1.1300000000000E+00 -2.0559040125624E-01 -3.8796966995915E-03
   115  1.1400000000000E+00 -1.7737418566589E-01 -6.7700807040784E-02
   116  1.1500000000000E+00 -1.4992243428121E-01 -1.2692538090923E-01
   117  1.1600000000000E+00 -1.2349541971628E-01 -1.8113065210173E-01
   118  1.1700000000000E+00 -9.8332366945357E-02 -2.2994904780979E-01
   119  1.1800000000000E+00 -7.4648486701230E-02 -2.7307428563514E-01
   120  1.1900000000000E+00 -5.2632397897051E-02 -3.1026651919951E-01
   121  1.2000000000000E+00 -3.2443993501585E-02 -3.4135640435422E-01
   122  1.2100000000000E+00 -1.4212800169722E-02 -3.6624796435235E-01
   123  1.2200000000000E+00  1.9634296664170E-03 -3.8492123915815E-01
   124  1.2300000000000E+00  1.6020782595548E-02 -3.9743783318027E-01
   125  1.2400000000000E+00  2.7930231982825E-02 -4.0394323602463E-01
   126  1.2500000000000E+00  3.7697378664055E-02 -4.0466506337328E-01
   127  1.2600000000000E+00  4.5361598244985E-02 -3.9990986440602E-01
   128  1.2700000000000E+00  5.0994615364294E-02 -3.9005855851033E-01
   129  1.2800000000000E+00  5.4698531624532E-02 -3.7556057447019E-01
   130  1.2900000000000E+00  5.6603340482611E-02 -3.5692677628384E-01
   131  1.3000000000000E+00  5.6863972495436E-02 -3.3472128445850E-01
   132  1.3100000000000E+00  5.5656923629645E-02 -3.0955232429495E-01