F     ONCVPSP-4.0.1  r_core=   1.52435   1.52435   1.52435
      9.0000      7.0000      211015    zatom,zion,pspd
     8      11   2     4   600     0    pspcod,pspxc,lmax,lloc,mmax,r2well
  5.99000000  2.50000000  0.00000000    rchrg fchrg qchrg
     2     2     1     0     0    nproj
     1     1           extension_switch
   0                         8.0933831504516E+00  8.6516027351305E-01
     1  0.0000000000000E+00  3.5590985714151E-10 -1.8048944006033E-09
     2  1.0000000000000E-02  9.5389708370998E-02 -3.4913178831428E-02
     3  2.0000000000000E-02  1.9049255528268E-01 -6.9619580414462E-02
     4  3.0000000000000E-02  2.8502258260962E-01 -1.0391247371029E-01
     5  4.0000000000000E-02  3.7869564011858E-01 -1.3758524105695E-01
     6  5.0000000000000E-02  4.7123029238306E-01 -1.7043148678393E-01
     7  6.0000000000000E-02  5.6234872900190E-01 -2.0224520683419E-01
     8  7.0000000000000E-02  6.5177767879807E-01 -2.3282103757659E-01
     9  8.0000000000000E-02  7.3924932831748E-01 -2.6195460018719E-01
    10  9.0000000000000E-02  8.2450224451431E-01 -2.8944295477257E-01
    11  1.0000000000000E-01  9.0728230100416E-01 -3.1508517583591E-01
    12  1.1000000000000E-01  9.8734360670020E-01 -3.3868305778584E-01
    13  1.2000000000000E-01  1.0644494350273E+00 -3.6004195600430E-01
    14  1.3000000000000E-01  1.1383731512494E+00 -3.7897176557402E-01
    15  1.4000000000000E-01  1.2088991347531E+00 -3.9528803617234E-01
    16  1.5000000000000E-01  1.2758236924269E+00 -4.0881321792842E-01
    17  1.6000000000000E-01  1.3389559585617E+00 -4.1937802927680E-01
    18  1.7000000000000E-01  1.3981187760035E+00 -4.2682293408910E-01
    19  1.8000000000000E-01  1.4531495526155E+00 -4.3099971169706E-01
    20  1.9000000000000E-01  1.5039010864796E+00 -4.3177309990249E-01
    21  2.0000000000000E-01  1.5502423526890E+00 -4.2902248777544E-01
    22  2.1000000000000E-01  1.5920592440886E+00 -4.2264363203826E-01
    23  2.2000000000000E-01  1.6292552578996E+00 -4.1255036819048E-01
    24  2.3000000000000E-01  1.6617521198514E+00 -3.9867628530996E-01
    25  2.4000000000000E-01  1.6894903372424E+00 -3.8097633173089E-01
    26  2.5000000000000E-01  1.7124296722712E+00 -3.5942831760357E-01
    27  2.6000000000000E-01  1.7305495270388E+00 -3.3403427973240E-01
    28  2.7000000000000E-01  1.7438492318216E+00 -3.0482167410774E-01
    29  2.8000000000000E-01  1.7523482285621E+00 -2.7184436222293E-01
    30  2.9000000000000E-01  1.7560861420286E+00 -2.3518335862686E-01
    31  3.0000000000000E-01  1.7551227317537E+00 -1.9494730920655E-01
    32  3.1000000000000E-01  1.7495377186694E+00 -1.5127267243254E-01
    33  3.2000000000000E-01  1.7394304813241E+00 -1.0432357920981E-01
    34  3.3000000000000E-01  1.7249196176722E+00 -5.4291351039907E-02
    35  3.4000000000000E-01  1.7061423696692E+00 -1.3936608756821E-03
    36  3.5000000000000E-01  1.6832539092772E+00  5.4126673712085E-02
    37  3.6000000000000E-01  1.6564264859596E+00  1.1200326969566E-01
    38  3.7000000000000E-01  1.6258484373166E+00  1.7194812854944E-01
    39  3.8000000000000E-01  1.5917230661611E+00  2.3365394896015E-01
    40  3.9000000000000E-01  1.5542673890308E+00  2.9679678746933E-01
    41  4.0000000000000E-01  1.5137107628674E+00  3.6103904529979E-01
    42  4.1000000000000E-01  1.4702933983304E+00  4.2603275263472E-01
    43  4.2000000000000E-01  1.4242647699359E+00  4.9142311469214E-01
    44  4.3000000000000E-01  1.3758819348910E+00  5.5685227717370E-01
    45  4.4000000000000E-01  1.3254077741090E+00  6.2196326218057E-01
    46  4.5000000000000E-01  1.2731091704104E+00  6.8640401958107E-01
    47  4.6000000000000E-01  1.2192551403243E+00  7.4983153319294E-01
    48  4.7000000000000E-01  1.1641149371766E+00  8.1191591609764E-01
    49  4.8000000000000E-01  1.1079561442648E+00  8.7234442502391E-01
    50  4.9000000000000E-01  1.0510427778599E+00  9.3082532009851E-01
    51  5.0000000000000E-01  9.9363342053291E-01  9.8709149342137E-01
    52  5.1000000000000E-01  9.3597940584998E-01  1.0409037879353E+00
    53  5.2000000000000E-01  8.7832307583148E-01  1.0920539269514E+00
    54  5.3000000000000E-01  8.2089613269820E-01  1.1403669744826E+00
    55  5.4000000000000E-01  7.6391810635056E-01  1.1857032472227E+00
    56  5.5000000000000E-01  7.0759495873518E-01  1.2279596005711E+00
    57  5.6000000000000E-01  6.5211784576136E-01  1.2670700135095E+00
    58  5.7000000000000E-01  5.9766205674532E-01  1.3030054003247E+00
    59  5.8000000000000E-01  5.4438615049827E-01  1.3357725810903E+00
    60  5.9000000000000E-01  4.9243130615239E-01  1.3654123473630E+00
    61  6.0000000000000E-01  4.4192090565710E-01  1.3919965646509E+00
    62  6.1000000000000E-01  3.9296036359933E-01  1.4156242587342E+00
    63  6.2000000000000E-01  3.4563721863038E-01  1.4364166387811E+00
    64  6.3000000000000E-01  3.0002149934455E-01  1.4545110162590E+00
    65  6.4000000000000E-01  2.5616637597745E-01  1.4700535847890E+00
    66  6.5000000000000E-01  2.1410910780185E-01  1.4831910321985E+00
    67  6.6000000000000E-01  1.7387229462264E-01  1.4940609619828E+00
    68  6.7000000000000E-01  1.3546543932782E-01  1.5027811068854E+00
    69  6.8000000000000E-01  9.8886827085528E-02  1.5094373230467E+00
    70  6.9000000000000E-01  6.4125830401112E-02  1.5140736572018E+00
    71  7.0000000000000E-01  3.1166176494749E-02  1.5167136319615E+00
    72  7.1000000000000E-01 -1.1904299813014E-05  1.5173864523725E+00
    73  7.2000000000000E-01 -2.9431083692118E-02  1.5161274896416E+00
    74  7.3000000000000E-01 -5.7116462468381E-02  1.5129762931107E+00
    75  7.4000000000000E-01 -8.3095109149772E-02  1.5079746870898E+00
    76  7.5000000000000E-01 -1.0739561918878E-01  1.5011649918623E+00
    77  7.6000000000000E-01 -1.3004770308135E-01  1.4925884027587E+00
    78  7.7000000000000E-01 -1.5108181096487E-01  1.4822835580261E+00
    79  7.8000000000000E-01 -1.7052880035100E-01  1.4702853226095E+00
    80  7.9000000000000E-01 -1.8841965261909E-01  1.4566238106845E+00
    81  8.0000000000000E-01 -2.0478524278037E-01  1.4413236649436E+00
    82  8.1000000000000E-01 -2.1965616584463E-01  1.4244036057017E+00
    83  8.2000000000000E-01 -2.3306262189549E-01  1.4058762575729E+00
    84  8.3000000000000E-01 -2.4503436071040E-01  1.3857482556401E+00
    85  8.4000000000000E-01 -2.5560068550766E-01  1.3640206277681E+00
    86  8.5000000000000E-01 -2.6479051413738E-01  1.3406894437799E+00
    87  8.6000000000000E-01 -2.7263249481054E-01  1.3157467167506E+00
    88  8.7000000000000E-01 -2.7915517230923E-01  1.2891815366011E+00
    89  8.8000000000000E-01 -2.8438719950572E-01  1.2609814107995E+00
    90  8.9000000000000E-01 -2.8835758805526E-01  1.2311337829240E+00
    91  9.0000000000000E-01 -2.9109599121632E-01  1.1996276953473E+00
    92  9.1000000000000E-01 -2.9263301103446E-01  1.1664555593021E+00
    93  9.2000000000000E-01 -2.9300052149832E-01  1.1316149924922E+00
    94  9.3000000000000E-01 -2.9223199884876E-01  1.0951106826056E+00
    95  9.4000000000000E-01 -2.9036284994713E-01  1.0569562338276E+00
    96  9.5000000000000E-01 -2.8743072948335E-01  1.0171759527678E+00
    97  9.6000000000000E-01 -2.8347583692039E-01  9.7580653102209E-01
    98  9.7000000000000E-01 -2.7854118427443E-01  9.3289858227394E-01
    99  9.8000000000000E-01 -2.7267282631480E-01  8.8851799442451E-01
   100  9.9000000000000E-01 -2.6592004529771E-01  8.4274705939476E-01
   101  1.0000000000000E+00 -2.5833548317881E-01  7.9568534749522E-01
   102  1.0100000000000E+00 -2.4997521507533E-01  7.4745029676429E-01
   103  1.0200000000000E+00 -2.4089875885485E-01  6.9817749316442E-01
   104  1.0300000000000E+00 -2.3116901680857E-01  6.4802062228915E-01
   105  1.0400000000000E+00 -2.2085214668730E-01  5.9715107969485E-01
   106  1.0500000000000E+00 -2.1001736060596E-01  5.4575723238001E-01
   107  1.0600000000000E+00 -1.9873665178696E-01  4.9404333111057E-01
   108  1.0700000000000E+00 -1.8708445041150E-01  4.4222807904648E-01
   109  1.0800000000000E+00 -1.7513721132406E-01  3.9054286928361E-01
   110  1.0900000000000E+00 -1.6297293763434E-01  3.3922970978332E-01
   111  1.1000000000000E+00 -1.5067064564100E-01  2.8853886079685E-01
   112  1.1100000000000E+00 -1.3830977769177E-01  2.3872621530141E-01
   113  1.1200000000000E+00 -1.2596957078682E-01  1.9005045868121E-01
   114  1.1300000000000E+00 -1.1372838974292E-01  1.4277004856182E-01
   115  1.1400000000000E+00 -1.0166303460234E-01  9.7140059744324E-02
   116  1.1500000000000E+00 -8.9848032774682E-02  5.3408943120784E-02
   117  1.1600000000000E+00 -7.8354926854268E-02  1.1815249385267E-02
   118  1.1700000000000E+00 -6.7251569563053E-02 -2.7415628959558E-02
   119  1.1800000000000E+00 -5.6601437322258E-02 -6.4074643772095E-02
   120  1.1900000000000E+00 -4.6462974059061E-02 -9.7972151315649E-02
   121  1.2000000000000E+00 -3.6888976571646E-02 -1.2894079327459E-01
   122  1.2100000000000E+00 -2.7926032368389E-02 -1.5683814765502E-01
   123  1.2200000000000E+00 -1.9614020354059E-02 -1.8154910083312E-01
   124  1.2300000000000E+00 -1.1985683822327E-02 -2.0298789640534E-01
   125  1.2400000000000E+00 -5.0662844341565E-03 -2.2109981974198E-01
   126  1.2500000000000E+00  1.1266557107389E-03 -2.3586248507440E-01
   127  1.2600000000000E+00  6.5835168573985E-03 -2.4728669032988E-01
   128  1.2700000000000E+00  1.1302646012426E-02 -2.5541682625806E-01
   129  1.2800000000000E+00  1.5290318005984E-02 -2.6033081334083E-01
   130  1.2900000000000E+00  1.8560592812675E-02 -2.6213956571998E-01
   131  1.3000000000000E+00  2.1135068181838E-02 -2.6098597558929E-01
   132  1.3100000000000E+00  2.3042529735627E-02 -2.5704342791220E-01
   133  1.3200000000000E+00  2.4318501387958E-02 -2.5051385724005E-01
   134  1.3300000000000E+00  2.5004701035363E-02 -2.4162536876359E-01
   135  1.3400000000000E+00  2.5148407864471E-02 -2.3062945196789E-01
   136  1.3500000000000E+00  2.4801749103868E-02 -2.1779782215626E-01
   137  1.3600000000000E+00  2.4020915435821E-02 -2.0341893156732E-01
   138  1.3700000000000E+00  2.2865315446665E-02 -1.8779419714676E-01
   139  1.3800000000000E+00  2.1396680648230E-02 -1.7123399748247E-01
   140  1.3900000000000E+00  1.9678133406235E-02 -1.5405349506120E-01
   141  1.4000000000000E+00  1.7773230890188E-02 -1.3656834371186E-01
   142  1.4100000000000E+00  1.5744998624149E-02 -1.1909034324768E-01
   143  1.4200000000000E+00  1.3654968156203E-02 -1.0192310729120E-01
   144  1.4300000000000E+00  1.1562224479163E-02 -8.5357775404346E-02
   145  1.4400000000000E+00  9.5225170716318E-03 -6.9668988277265E-02
   146  1.4500000000000E+00  7.5871709268302E-03 -5.5110110985536E-02
   147  1.4600000000000E+00  5.7997259430630E-03 -4.1899378819203E-02
   148  1.4700000000000E+00  4.2005388363748E-03 -3.0237597664912E-02
   149  1.4800000000000E+00  2.8258034389570E-03 -2.0304214224779E-02
   150  1.4900000000000E+00  1.7042333224657E-03 -1.2243935724971E-02
   151  1.5000000000000E+00  8.5698471520344E-04 -6.1667959939942E-03
   152  1.5100000000000E+00  2.9472995425710E-04 -2.1278402732114E-03
   153  1.5200000000000E+00  3.2459069551813E-05 -2.3561416872772E-04
   154  1.5300000000000E+00 -4.5352694050064E-06  3.3010927747643E-05
   155  1.5400000000000E+00  1.2759009512758E-06 -9.2614252870102E-06
   156  1.5500 -0.  0.
   157  1.5600  0. -0.
   158  1.5700  0.  0.
   159  1.5800  0.  0.
   160  1.5900  0.  0.
   161  1.6000  0.  0.
   162  1.6100  0.  0.
   163  1.6200  0.  0.
   164  1.6300  0.  0.
   165  1.6400  0.  0.
   166  1.6500  0.  0.
   167  1.6600  0.  0.
   168  1.6700  0.  0.
   169  1.6800  0.  0.
   170  1.6900  0.  0.
   171  1.7000  0.  0.
   172  1.7100  0.  0.
   173  1.7200  0.  0.
   174  1.7300  0.  0.
   175  1.7400  0.  0.
   176  1.7500  0.  0.
   177  1.7600  0.  0.
   178  1.7700  0.  0.
   179  1.7800  0.  0.
   180  1.7900  0.  0.
   181  1.8000  0.  0.
   182  1.8100  0.  0.
   183  1.8200  0.  0.
   184  1.8300  0.  0.
   185  1.8400  0.  0.
   186  1.8500  0.  0.
   187  1.8600  0.  0.
   188  1.8700  0.  0.
   189  1.8800  0.  0.
   190  1.8900  0.  0.
   191  1.9000  0.  0.
   192  1.9100  0.  0.
   193  1.9200  0.  0.
   194  1.9300  0.  0.
   195  1.9400  0.  0.
   196  1.9500  0.  0.
   197  1.9600  0.  0.
   198  1.9700  0.  0.
   199  1.9800  0.  0.
   200  1.9900  0.  0.
   201  2.0000  0.  0.
   202  2.0100  0.  0.
   203  2.0200  0.  0.
   204  2.0300  0.  0.
   205  2.0400  0.  0.
   206  2.0500  0.  0.
   207  2.0600  0.  0.
   208  2.0700  0.  0.
   209  2.0800  0.  0.
   210  2.0900  0.  0.
   211  2.1000  0.  0.
   212  2.1100  0.  0.
   213  2.1200  0.  0.
   214  2.1300  0.  0.
   215  2.1400  0.  0.
   216  2.1500  0.  0.
   217  2.1600  0.  0.
   218  2.1700  0.  0.
   219  2.1800  0.  0.
   220  2.1900  0.  0.
   221  2.2000  0.  0.
   222  2.2100  0.  0.
   223  2.2200  0.  0.
   224  2.2300  0.  0.
   225  2.2400  0.  0.
   226  2.2500  0.  0.
   227  2.2600  0.  0.
   228  2.2700  0.  0.
   229  2.2800  0.  0.
   230  2.2900  0.  0.
   231  2.3000  0.  0.
   232  2.3100  0.  0.
   233  2.3200  0.  0.
   234  2.3300  0.  0.
   235  2.3400  0.  0.
   236  2.3500  0.  0.
   237  2.3600  0.  0.
   238  2.3700  0.  0.
   239  2.3800  0.  0.
   240  2.3900  0.  0.
   241  2.4000  0.  0.
   242  2.4100  0.  0.
   243  2.4200  0.  0.
   244  2.4300  0.  0.
   245  2.4400  0.  0.
   246  2.4500  0.  0.
   247  2.4600  0.  0.
   248  2.4700  0.  0.
   249  2.4800  0.  0.
   250  2.4900  0.  0.
   251  2.5000  0.  0.
   252  2.5100  0.  0.
   253  2.5200  0.  0.
   254  2.5300  0.  0.
   255  2.5400  0.  0.
   256  2.5500  0.  0.
   257  2.5600  0.  0.
   258  2.5700  0.  0.
   259  2.5800  0.  0.
   260  2.5900  0.  0.
   261  2.6000  0.  0.
   262  2.6100  0.  0.
   263  2.6200  0.  0.
   264  2.6300  0.  0.
   265  2.6400  0.  0.
   266  2.6500  0.  0.
   267  2.6600  0.  0.
   268  2.6700  0.  0.
   269  2.6800  0.  0.
   270  2.6900  0.  0.
   271  2.7000  0.  0.
   272  2.7100  0.  0.
   273  2.7200  0.  0.
   274  2.7300  0.  0.
   275  2.7400  0.  0.
   276  2.7500  0.  0.
   277  2.7600  0.  0.
   278  2.7700  0.  0.
   279  2.7800  0.  0.
   280  2.7900  0.  0.
   281  2.8000  0.  0.
   282  2.8100  0.  0.
   283  2.8200  0.  0.
   284  2.8300  0.  0.
   285  2.8400  0.  0.
   286  2.8500  0.  0.
   287  2.8600  0.  0.
   288  2.8700  0.  0.
   289  2.8800  0.  0.
   290  2.8900  0.  0.
   291  2.9000  0.  0.
   292  2.9100  0.  0.
   293  2.9200  0.  0.
   294  2.9300  0.  0.
   295  2.9400  0.  0.
   296  2.9500  0.  0.
   297  2.9600  0.  0.
   298  2.9700  0.  0.
   299  2.9800  0.  0.
   300  2.9900  0.  0.
   301  3.0000  0.  0.
   302  3.0100  0.  0.
   303  3.0200  0.  0.
   304  3.0300  0.  0.
   305  3.0400  0.  0.
   306  3.0500  0.  0.
   307  3.0600  0.  0.
   308  3.0700  0.  0.
   309  3.0800  0.  0.
   310  3.0900  0.  0.
   311  3.1000  0.  0.
   312  3.1100  0.  0.
   313  3.1200  0.  0.
   314  3.1300  0.  0.
   315  3.1400  0.  0.
   316  3.1500  0.  0.
   317  3.1600  0.  0.
   318  3.1700  0.  0.
   319  3.1800  0.  0.
   320  3.1900  0.  0.
   321  3.2000  0.  0.
   322  3.2100  0.  0.
   323  3.2200  0.  0.
   324  3.2300  0.  0.
   325  3.2400  0.  0.
   326  3.2500  0.  0.
   327  3.2600  0.  0.
   328  3.2700  0.  0.
   329  3.2800  0.  0.
   330  3.2900  0.  0.
   331  3.3000  0.  0.
   332  3.3100  0.  0.
   333  3.3200  0.  0.
   334  3.3300  0.  0.
   335  3.3400  0.  0.
   336  3.3500  0.  0.
   337  3.3600  0.  0.
   338  3.3700  0.  0.
   339  3.3800  0.  0.
   340  3.3900  0.  0.
   341  3.4000  0.  0.
   342  3.4100  0.  0.
   343  3.4200  0.  0.
   344  3.4300  0.  0.
   345  3.4400  0.  0.
   346  3.4500  0.  0.
   347  3.4600  0.  0.
   348  3.4700  0.  0.
   349  3.4800  0.  0.
   350  3.4900  0.  0.
   351  3.5000  0.  0.
   352  3.5100  0.  0.
   353  3.5200  0.  0.
   354  3.5300  0.  0.
   355  3.5400  0.  0.
   356  3.5500  0.  0.
   357  3.5600  0.  0.
   358  3.5700  0.  0.
   359  3.5800  0.  0.
   360  3.5900  0.  0.
   361  3.6000  0.  0.
   362  3.6100  0.  0.
   363  3.6200  0.  0.
   364  3.6300  0.  0.
   365  3.6400  0.  0.
   366  3.6500  0.  0.
   367  3.6600  0.  0.
   368  3.6700  0.  0.
   369  3.6800  0.  0.
   370  3.6900  0.  0.
   371  3.7000  0.  0.
   372  3.7100  0.  0.
   373  3.7200  0.  0.
   374  3.7300  0.  0.
   375  3.7400  0.  0.
   376  3.7500  0.  0.
   377  3.7600  0.  0.
   378  3.7700  0.  0.
   379  3.7800  0.  0.
   380  3.7900  0.  0.
   381  3.8000  0.  0.
   382  3.8100  0.  0.
   383  3.8200  0.  0.
   384  3.8300  0.  0.
   385  3.8400  0.  0.
   386  3.8500  0.  0.
   387  3.8600  0.  0.
   388  3.8700  0.  0.
   389  3.8800  0.  0.
   390  3.8900  0.  0.
   391  3.9000  0.  0.
   392  3.9100  0.  0.
   393  3.9200  0.  0.
   394  3.9300  0.  0.
   395  3.9400  0.  0.
   396  3.9500  0.  0.
   397  3.9600  0.  0.
   398  3.9700  0.  0.
   399  3.9800  0.  0.
   400  3.9900  0.  0.
   401  4.0000  0.  0.
   402  4.0100  0.  0.
   403  4.0200  0.  0.
   404  4.0300  0.  0.
   405  4.0400  0.  0.
   406  4.0500  0.  0.
   407  4.0600  0.  0.
   408  4.0700  0.  0.
   409  4.0800  0.  0.
   410  4.0900  0.  0.
   411  4.1000  0.  0.
   412  4.1100  0.  0.
   413  4.1200  0.  0.
   414  4.1300  0.  0.
   415  4.1400  0.  0.
   416  4.1500  0.  0.
   417  4.1600  0.  0.
   418  4.1700  0.  0.
   419  4.1800  0.  0.
   420  4.1900  0.  0.
   421  4.2000  0.  0.
   422  4.2100  0.  0.
   423  4.2200  0.  0.
   424  4.2300  0.  0.
   425  4.2400  0.  0.
   426  4.2500  0.  0.
   427  4.2600  0.  0.
   428  4.2700  0.  0.
   429  4.2800  0.  0.
   430  4.2900  0.  0.
   431  4.3000  0.  0.
   432  4.3100  0.  0.
   433  4.3200  0.  0.
   434  4.3300  0.  0.
   435  4.3400  0.  0.
   436  4.3500  0.  0.
   437  4.3600  0.  0.
   438  4.3700  0.  0.
   439  4.3800  0.  0.
   440  4.3900  0.  0.
   441  4.4000  0.  0.
   442  4.4100  0.  0.
   443  4.4200  0.  0.
   444  4.4300  0.  0.
   445  4.4400  0.  0.
   446  4.4500  0.  0.
   447  4.4600  0.  0.
   448  4.4700  0.  0.
   449  4.4800  0.  0.
   450  4.4900  0.  0.
   451  4.5000  0.  0.
   452  4.5100  0.  0.
   453  4.5200  0.  0.
   454  4.5300  0.  0.
   455  4.5400  0.  0.
   456  4.5500  0.  0.
   457  4.5600  0.  0.
   458  4.5700  0.  0.
   459  4.5800  0.  0.
   460  4.5900  0.  0.
   461  4.6000  0.  0.
   462  4.6100  0.  0.
   463  4.6200  0.  0.
   464  4.6300  0.  0.
   465  4.6400  0.  0.
   466  4.6500  0.  0.
   467  4.6600  0.  0.
   468  4.6700  0.  0.
   469  4.6800  0.  0.
   470  4.6900  0.  0.
   471  4.7000  0.  0.
   472  4.7100  0.  0.
   473  4.7200  0.  0.
   474  4.7300  0.  0.
   475  4.7400  0.  0.
   476  4.7500  0.  0.
   477  4.7600  0.  0.
   478  4.7700  0.  0.
   479  4.7800  0.  0.
   480  4.7900  0.  0.
   481  4.8000  0.  0.
   482  4.8100  0.  0.
   483  4.8200  0.  0.
   484  4.8300  0.  0.
   485  4.8400  0.  0.
   486  4.8500  0.  0.
   487  4.8600  0.  0.
   488  4.8700  0.  0.
   489  4.8800  0.  0.
   490  4.8900  0.  0.
   491  4.9000  0.  0.
   492  4.9100  0.  0.
   493  4.9200  0.  0.
   494  4.9300  0.  0.
   495  4.9400  0.  0.
   496  4.9500  0.  0.
   497  4.9600  0.  0.
   498  4.9700  0.  0.
   499  4.9800  0.  0.
   500  4.9900  0.  0.
   501  5.0000  0.  0.
   502  5.0100  0.  0.
   503  5.0200  0.  0.
   504  5.0300  0.  0.
   505  5.0400  0.  0.
   506  5.0500  0.  0.
   507  5.0600  0.  0.
   508  5.0700  0.  0.
   509  5.0800  0.  0.
   510  5.0900  0.  0.
   511  5.1000  0.  0.
   512  5.1100  0.  0.
   513  5.1200  0.  0.
   514  5.1300  0.  0.
   515  5.1400  0.  0.
   516  5.1500  0.  0.
   517  5.1600  0.  0.
   518  5.1700  0.  0.
   519  5.1800  0.  0.
   520  5.1900  0.  0.
   521  5.2000  0.  0.
   522  5.2100  0.  0.
   523  5.2200  0.  0.
   524  5.2300  0.  0.
   525  5.2400  0.  0.
   526  5.2500  0.  0.
   527  5.2600  0.  0.
   528  5.2700  0.  0.
   529  5.2800  0.  0.
   530  5.2900  0.  0.
   531  5.3000  0.  0.
   532  5.3100  0.  0.
   533  5.3200  0.  0.
   534  5.3300  0.  0.
   535  5.3400  0.  0.
   536  5.3500  0.  0.
   537  5.3600  0.  0.
   538  5.3700  0.  0.
   539  5.3800  0.  0.
   540  5.3900  0.  0.
   541  5.4000  0.  0.
   542  5.4100  0.  0.
   543  5.4200  0.  0.
   544  5.4300  0.  0.
   545  5.4400  0.  0.
   546  5.4500  0.  0.
   547  5.4600  0.  0.
   548  5.4700  0.  0.
   549  5.4800  0.  0.
   550  5.4900  0.  0.
   551  5.5000  0.  0.
   552  5.5100  0.  0.
   553  5.5200  0.  0.
   554  5.5300  0.  0.
   555  5.5400  0.  0.
   556  5.5500  0.  0.
   557  5.5600  0.  0.
   558  5.5700  0.  0.
   559  5.5800  0.  0.
   560  5.5900  0.  0.
   561  5.6000  0.  0.
   562  5.6100  0.  0.
   563  5.6200  0.  0.
   564  5.6300  0.  0.
   565  5.6400  0.  0.
   566  5.6500  0.  0.
   567  5.6600  0.  0.
   568  5.6700  0.  0.
   569  5.6800  0.  0.
   570  5.6900  0.  0.
   571  5.7000  0.  0.
   572  5.7100  0.  0.
   573  5.7200  0.  0.
   574  5.7300  0.  0.
   575  5.7400  0.  0.
   576  5.7500  0.  0.
   577  5.7600  0.  0.
   578  5.7700  0.  0.
   579  5.7800  0.  0.
   580  5.7900  0.  0.
   581  5.8000  0.  0.
   582  5.8100  0.  0.
   583  5.8200  0.  0.
   584  5.8300  0.  0.
   585  5.8400  0.  0.
   586  5.8500  0.  0.
   587  5.8600  0.  0.
   588  5.8700  0.  0.
   589  5.8800  0.  0.
   590  5.8900  0.  0.
   591  5.9000  0.  0.
   592  5.9100  0.  0.
   593  5.9200  0.  0.
   594  5.9300  0.  0.
   595  5.9400  0.  0.
   596  5.9500  0.  0.
   597  5.9600  0.  0.
   598  5.9700  0.  0.
   599  5.9800  0.  0.
   600  5.9900  0.  0.
   1                        -2.4929433256995E+00 -1.9406947084482E+00
     1  0.0000000000000E+00 -1.2311429958833E-08  2.9879488050444E-09
     2  1.0000000000000E-02 -1.2175340880395E-03 -2.0879022572815E-03
     3  2.0000000000000E-02 -4.8399400264741E-03 -8.3380943726970E-03
     4  3.0000000000000E-02 -1.0777095073125E-02 -1.8710037982205E-02
     5  4.0000000000000E-02 -1.8880341781901E-02 -3.3136189702562E-02
     6  5.0000000000000E-02 -2.8944784323257E-02 -5.1522038472906E-02
     7  6.0000000000000E-02 -4.0712454982853E-02 -7.3746170672055E-02
     8  7.0000000000000E-02 -5.3876303373669E-02 -9.9660375448905E-02
     9  8.0000000000000E-02 -6.8084948585428E-02 -1.2908980569128E-01
    10  9.0000000000000E-02 -8.2948123096765E-02 -1.6183321263600E-01
    11  1.0000000000000E-01 -9.8042726965109E-02 -1.9766327421495E-01
    12  1.1000000000000E-01 -1.1291940174622E-01 -2.3632703877114E-01
    13  1.2000000000000E-01 -1.2710952592080E-01 -2.7754650670955E-01
    14  1.3000000000000E-01 -1.4013252743977E-01 -3.2101937292496E-01
    15  1.4000000000000E-01 -1.5150340443978E-01 -3.6641995244156E-01
    16  1.5000000000000E-01 -1.6074034229924E-01 -4.1340031058845E-01
    17  1.6000000000000E-01 -1.6737231404940E-01 -4.6159161721841E-01
    18  1.7000000000000E-01 -1.7094655174433E-01 -5.1060574196481E-01
    19  1.8000000000000E-01 -1.7103577872016E-01 -5.6003710435061E-01
    20  1.9000000000000E-01 -1.6724509670106E-01 -6.0946478875538E-01
    21  2.0000000000000E-01 -1.5921842737401E-01 -6.5845492986809E-01
    22  2.1000000000000E-01 -1.4664441526367E-01 -7.0656336937551E-01
    23  2.2000000000000E-01 -1.2926170737740E-01 -7.5333857934321E-01
    24  2.3000000000000E-01 -1.0686353501380E-01 -7.9832484213468E-01
    25  2.4000000000000E-01 -7.9301534174927E-02 -8.4106567089078E-01
    26  2.5000000000000E-01 -4.6488753005080E-02 -8.8110744867345E-01
    27  2.6000000000000E-01 -8.4018073985821E-03 -9.1800325848626E-01
    28  2.7000000000000E-01  3.4917840841159E-02 -9.5131687064816E-01
    29  2.8000000000000E-01  8.3363495372682E-02 -9.8062684854408E-01
    30  2.9000000000000E-01  1.3676372469799E-01 -1.0055307287361E+00
    31  3.0000000000000E-01  1.9488373460115E-01 -1.0256492269162E+00
    32  3.1000000000000E-01  2.5742758565352E-01 -1.0406304173354E+00
    33  3.2000000000000E-01  3.2404121537841E-01 -1.0501538302605E+00
    34  3.3000000000000E-01  3.9431621308091E-01 -1.0539344097936E+00
    35  3.4000000000000E-01  4.6779428478747E-01 -1.0517262731090E+00
    36  3.5000000000000E-01  5.4397233637876E-01 -1.0433262119012E+00
    37  3.6000000000000E-01  6.2230809499023E-01 -1.0285768776237E+00
    38  3.7000000000000E-01  7.0222618222065E-01 -1.0073695939655E+00
    39  3.8000000000000E-01  7.8312454772568E-01 -9.7964674296424E-01
    40  3.9000000000000E-01  8.6438116844167E-01 -9.4540367516166E-01
    41  4.0000000000000E-01  9.4536091701453E-01 -9.0469009922751E-01
    42  4.1000000000000E-01  1.0254225029922E+00 -8.5761091244635E-01
    43  4.2000000000000E-01  1.1039253919394E+00 -8.0432644027614E-01
    44  4.3000000000000E-01  1.1802366107705E+00 -7.4505206074112E-01
    45  4.4000000000000E-01  1.2537373521741E+00 -6.8005719757617E-01
    46  4.5000000000000E-01  1.3238292968711E+00 -6.0966367464343E-01
    47  4.6000000000000E-01  1.3899405794587E+00 -5.3424343302888E-01
    48  4.7000000000000E-01  1.4515313315483E+00 -4.5421562121754E-01
    49  4.8000000000000E-01  1.5080987446087E+00 -3.7004307765552E-01
    50  4.9000000000000E-01  1.5591816041522E+00 -2.8222823364739E-01
    51  5.0000000000000E-01  1.6043642564298E+00 -1.9130847271885E-01
    52  5.1000000000000E-01  1.6432799783970E+00 -9.7850990116318E-02
    53  5.2000000000000E-01  1.6756137311502E+00 -2.4472028435940E-03
    54  5.3000000000000E-01  1.7011042860906E+00  9.4293233606598E-02
    55  5.4000000000000E-01  1.7195457215521E+00  1.9174874102203E-01
    56  5.5000000000000E-01  1.7307882953316E+00  2.8929240251861E-01
    57  5.6000000000000E-01  1.7347387053385E+00  3.8629874854578E-01
    58  5.7000000000000E-01  1.7313597562799E+00  4.8215067781532E-01
    59  5.8000000000000E-01  1.7206694548390E+00  5.7624644682170E-01
    60  5.9000000000000E-01  1.7027395590947E+00  6.6800666374370E-01
    61  6.0000000000000E-01  1.6776936099513E+00  7.5688122602355E-01
    62  6.1000000000000E-01  1.6457044730954E+00  8.4235614574977E-01
    63  6.2000000000000E-01  1.6069914195141E+00  9.2396021302556E-01
    64  6.3000000000000E-01  1.5618167709640E+00  1.0012714546617E+00
    65  6.4000000000000E-01  1.5104821340850E+00  1.0739233536385E+00
    66  6.5000000000000E-01  1.4533242432454E+00  1.1416108036598E+00
    67  6.6000000000000E-01  1.3907104278368E+00  1.2040957825755E+00
    68  6.7000000000000E-01  1.3230337148348E+00  1.2612127384220E+00
    69  6.8000000000000E-01  1.2507075720846E+00  1.3128736914511E+00
    70  6.9000000000000E-01  1.1741598268971E+00  1.3590703517526E+00
    71  7.0000000000000E-01  1.0938226923233E+00  1.3998499318196E+00
    72  7.1000000000000E-01  1.0101259140167E+00  1.4352883892116E+00
    73  7.2000000000000E-01  9.2349586533152E-01  1.4654856658958E+00
    74  7.3000000000000E-01  8.3435539610008E-01  1.4905628199867E+00
    75  7.4000000000000E-01  7.4312392586660E-01  1.5106589768162E+00
    76  7.5000000000000E-01  6.5021772728660E-01  1.5259281600891E+00
    77  7.6000000000000E-01  5.5605034140576E-01  1.5365360685005E+00
    78  7.7000000000000E-01  4.6103306356887E-01  1.5426568640004E+00
    79  7.8000000000000E-01  3.6557543738757E-01  1.5444700372325E+00
    80  7.9000000000000E-01  2.7008569454803E-01  1.5421574137567E+00
    81  8.0000000000000E-01  1.7497108023831E-01  1.5359003614812E+00
    82  8.1000000000000E-01  8.0638007579573E-02  1.5258772550809E+00
    83  8.2000000000000E-01 -1.2508010415558E-02  1.5122612474071E+00
    84  8.3000000000000E-01 -1.0406269631421E-01  1.4952183912768E+00
    85  8.4000000000000E-01 -1.9362364831631E-01  1.4749061470098E+00
    86  8.5000000000000E-01 -2.8079131319197E-01  1.4514723027385E+00
    87  8.6000000000000E-01 -3.6517031067649E-01  1.4250543253068E+00
    88  8.7000000000000E-01 -4.4637111748877E-01  1.3957791498176E+00
    89  8.8000000000000E-01 -5.2401210838383E-01  1.3637634062994E+00
    90  8.9000000000000E-01 -5.9772194063886E-01  1.3291140717465E+00
    91  9.0000000000000E-01 -6.6714225755035E-01  1.2919295263517E+00
    92  9.1000000000000E-01 -7.3193067593403E-01  1.2523009831018E+00
    93  9.2000000000000E-01 -7.9176401271354E-01  1.2103142513195E+00
    94  9.3000000000000E-01 -8.4634169652882E-01  1.1660517865383E+00
    95  9.4000000000000E-01 -8.9538930220625E-01  1.1195949719920E+00
    96  9.5000000000000E-01 -9.3866213913361E-01  1.0710265711085E+00
    97  9.6000000000000E-01 -9.7594881908370E-01  1.0204332853594E+00
    98  9.7000000000000E-01 -1.0070747252640E+00  9.6790834866862E-01
    99  9.8000000000000E-01 -1.0319053020842E+00  9.1355408725680E-01
   100  9.9000000000000E-01 -1.0503490848380E+00  8.5748437364854E-01
   101  1.0000000000000E+00 -1.0623603897384E+00  7.9982690419908E-01
   102  1.0100000000000E+00 -1.0679415880835E+00  7.4072523243876E-01
   103  1.0200000000000E+00 -1.0671448931641E+00  6.8034049422499E-01
   104  1.0300000000000E+00 -1.0600735953300E+00  6.1885276649708E-01
   105  1.0400000000000E+00 -1.0468826887597E+00  5.5646200790147E-01
   106  1.0500000000000E+00 -1.0277788433699E+00  4.9338853797269E-01
   107  1.0600000000000E+00 -1.0030196861380E+00  4.2987302026005E-01
   108  1.0700000000000E+00 -9.7291236834390E-01  3.6617592515254E-01
   109  1.0800000000000E+00 -9.3781140803150E-01  3.0257645854462E-01
   110  1.0900000000000E+00 -8.9811581062463E-01  2.3937095394064E-01
   111  1.1000000000000E+00 -8.5426548435854E-01  1.7687073682933E-01
   112  1.1100000000000E+00 -8.0673698120679E-01  1.1539948189184E-01
   113  1.1200000000000E+00 -7.5603860752449E-01  5.5290094730525E-02
   114  1.1300000000000E+00 -7.0270496185726E-01 -3.1188391826798E-03
   115  1.1400000000000E+00 -6.4729096971099E-01 -5.9486985374905E-02
   116  1.1500000000000E+00 -5.9036549630906E-01 -1.1347650888566E-01
   117  1.1600000000000E+00 -5.3250462851507E-01 -1.6475656964866E-01
   118  1.1700000000000E+00 -4.7428472539727E-01 -2.1300798726370E-01
   119  1.1800000000000E+00 -4.1627534389098E-01 -2.5792799164996E-01
   120  1.1900000000000E+00 -3.5903215072343E-01 -2.9923497229213E-01