Ne    ONCVPSP-4.0.1  r_core=   1.40189   1.80230
     10.0000      8.0000      220124    zatom,zion,pspd
     8      11   1     4   400     0    pspcod,pspxc,lmax,lloc,mmax,r2well
  3.99000000  0.00000000  0.00000000    rchrg fchrg qchrg
     2     2     0     0     0    nproj
     1     1           extension_switch
   0                         1.6850328690032E+00 -7.4617295033252E-01
     1  0.0000000000000E+00 -1.8900382370290E-09  1.0135345340778E-10
     2  1.0000000000000E-02  9.8109449129135E-02  2.2925644045166E-02
     3  2.0000000000000E-02  1.9579551561471E-01  4.5878693616099E-02
     4  3.0000000000000E-02  2.9263782338964E-01  6.8886270902666E-02
     5  4.0000000000000E-02  3.8822197527338E-01  9.1974933795147E-02
     6  5.0000000000000E-02  4.8214245724026E-01  1.1517039963874E-01
     7  6.0000000000000E-02  5.7400544184557E-01  1.3849727600014E-01
     8  7.0000000000000E-02  6.6343145945218E-01  1.6197880066285E-01
     9  8.0000000000000E-02  7.5005790779071E-01  1.8563659296645E-01
    10  9.0000000000000E-02  8.3354137269370E-01  2.0949041848107E-01
    11  1.0000000000000E-01  9.1355973553482E-01  2.3355796886314E-01
    12  1.1000000000000E-01  9.8981404593505E-01  2.5785465857441E-01
    13  1.2000000000000E-01  1.0620301416247E+00  2.8239343996517E-01
    14  1.3000000000000E-01  1.1299600009202E+00  3.0718463802729E-01
    15  1.4000000000000E-01  1.1933828170348E+00  3.3223580591550E-01
    16  1.5000000000000E-01  1.2521057873350E+00  3.5755160211931E-01
    17  1.6000000000000E-01  1.3059646146191E+00  3.8313368994561E-01
    18  1.7000000000000E-01  1.3548237214715E+00  4.0898065974659E-01
    19  1.8000000000000E-01  1.3985761826782E+00  4.3508797410196E-01
    20  1.9000000000000E-01  1.4371433845062E+00  4.6144793594135E-01
    21  2.0000000000000E-01  1.4704744233097E+00  4.8804967937556E-01
    22  2.1000000000000E-01  1.4985452593579E+00  5.1487918279561E-01
    23  2.2000000000000E-01  1.5213576449410E+00  5.4191930360082E-01
    24  2.3000000000000E-01  1.5389378486531E+00  5.6914983373152E-01
    25  2.4000000000000E-01  1.5513352002270E+00  5.9654757501256E-01
    26  2.5000000000000E-01  1.5586204823753E+00  6.2408643316146E-01
    27  2.6000000000000E-01  1.5608841977386E+00  6.5173752918158E-01
    28  2.7000000000000E-01  1.5582347402365E+00  6.7946932674779E-01
    29  2.8000000000000E-01  1.5507965008393E+00  7.0724777410020E-01
    30  2.9000000000000E-01  1.5387079380212E+00  7.3503645889197E-01
    31  3.0000000000000E-01  1.5221196429183E+00  7.6279677438985E-01
    32  3.1000000000000E-01  1.5011924285006E+00  7.9048809540073E-01
    33  3.2000000000000E-01  1.4760954708922E+00  8.1806796229480E-01
    34  3.3000000000000E-01  1.4470045293545E+00  8.4549227151357E-01
    35  3.4000000000000E-01  1.4141002694212E+00  8.7271547098999E-01
    36  3.5000000000000E-01  1.3775667112601E+00  8.9969075896468E-01
    37  3.6000000000000E-01  1.3375898225918E+00  9.2637028475748E-01
    38  3.7000000000000E-01  1.2943562724514E+00  9.5270535014365E-01
    39  3.8000000000000E-01  1.2480523587992E+00  9.7864661008770E-01
    40  3.9000000000000E-01  1.1988631195101E+00  1.0041442717031E+00
    41  4.0000000000000E-01  1.1469716326731E+00  1.0291482904295E+00
    42  4.1000000000000E-01  1.0925585084547E+00  1.0536085625507E+00
    43  4.2000000000000E-01  1.0358015710986E+00  1.0774751133079E+00
    44  4.3000000000000E-01  9.7687572599904E-01  1.1006982800023E+00
    45  4.4000000000000E-01  9.1595300326159E-01  1.1232288896106E+00
    46  4.5000000000000E-01  8.5320276581529E-01  1.1450184305714E+00
    47  4.6000000000000E-01  7.8879206700878E-01  1.1660192185219E+00
    48  4.7000000000000E-01  7.2288613977666E-01  1.1861845558818E+00
    49  4.8000000000000E-01  6.5564899693884E-01  1.2054688852855E+00
    50  4.9000000000000E-01  5.8724412004209E-01  1.2238279369590E+00
    51  5.0000000000000E-01  5.1783521240714E-01  1.2412188702140E+00
    52  5.1000000000000E-01  4.4758699073530E-01  1.2576004093011E+00
    53  5.2000000000000E-01  3.7666598878088E-01  1.2729329739072E+00
    54  5.3000000000000E-01  3.0524134622533E-01  1.2871788046168E+00
    55  5.4000000000000E-01  2.3348555600522E-01  1.3003020836716E+00
    56  5.5000000000000E-01  1.6157514394875E-01  1.3122690513576E+00
    57  5.6000000000000E-01  8.9691255658719E-02  1.3230481183330E+00
    58  5.7000000000000E-01  1.8020127127310E-02  1.3326099741714E+00
    59  5.8000000000000E-01 -5.3246582442272E-02  1.3409276923451E+00
    60  5.9000000000000E-01 -1.2391161473009E-01  1.3479768318098E+00
    61  6.0000000000000E-01 -1.9377210965570E-01  1.3537355352726E+00
    62  6.1000000000000E-01 -2.6261978923350E-01  1.3581846241388E+00
    63  6.2000000000000E-01 -3.3024133777288E-01  1.3613076900366E+00
    64  6.3000000000000E-01 -3.9641898464896E-01  1.3630911827160E+00
    65  6.4000000000000E-01 -4.6093129207938E-01  1.3635244940120E+00
    66  6.5000000000000E-01 -5.2355414644349E-01  1.3626000374530E+00
    67  6.6000000000000E-01 -5.8406194773657E-01  1.3603133229923E+00
    68  6.7000000000000E-01 -6.4222898782751E-01  1.3566630262322E+00
    69  6.8000000000000E-01 -6.9783100435140E-01  1.3516510514195E+00
    70  6.9000000000000E-01 -7.5064689338013E-01  1.3452825873988E+00
    71  7.0000000000000E-01 -8.0046056054121E-01  1.3375661556372E+00
    72  7.1000000000000E-01 -8.4706288705434E-01  1.3285136493704E+00
    73  7.2000000000000E-01 -8.9025378428581E-01  1.3181403628708E+00
    74  7.3000000000000E-01 -9.2984430793250E-01  1.3064650098143E+00
    75  7.4000000000000E-01 -9.6565880088819E-01  1.2935097297053E+00
    76  7.5000000000000E-01 -9.9753703225238E-01  1.2793000813350E+00
    77  7.6000000000000E-01 -1.0253362988522E+00  1.2638650222764E+00
    78  7.7000000000000E-01 -1.0489334550830E+00  1.2472368734727E+00
    79  7.8000000000000E-01 -1.0682268368525E+00  1.2294512680514E+00
    80  7.9000000000000E-01 -1.0831380459455E+00  1.2105470835923E+00
    81  8.0000000000000E-01 -1.0936135622103E+00  1.1905663571979E+00
    82  8.1000000000000E-01 -1.0996261525957E+00  1.1695541828492E+00
    83  8.2000000000000E-01 -1.1011760482244E+00  1.1475585906916E+00
    84  8.3000000000000E-01 -1.0982918633424E+00  1.1246304080673E+00
    85  8.4000000000000E-01 -1.0910312331132E+00  1.1008231023017E+00
    86  8.5000000000000E-01 -1.0794811507694E+00  1.0761926054534E+00
    87  8.6000000000000E-01 -1.0637579885683E+00  1.0507971214521E+00
    88  8.7000000000000E-01 -1.0440071912426E+00  1.0246969162657E+00
    89  8.8000000000000E-01 -1.0204026351522E+00  9.9795409196674E-01
    90  8.9000000000000E-01 -9.9314565104796E-01  9.7063234578968E-01
    91  9.0000000000000E-01 -9.6246371319232E-01  9.4279671549570E-01
    92  9.1000000000000E-01 -9.2860880246943E-01  9.1451331257855E-01
    93  9.2000000000000E-01 -8.9185545598449E-01  8.8584904505149E-01
    94  9.3000000000000E-01 -8.5249852042594E-01  8.5687133175069E-01
    95  9.4000000000000E-01 -8.1085063106968E-01  8.2764781026856E-01
    96  9.5000000000000E-01 -7.6723944266857E-01  7.9824604078936E-01
    97  9.6000000000000E-01 -7.2200464252617E-01  7.6873320823589E-01
    98  9.7000000000000E-01 -6.7549477973300E-01  7.3917582524700E-01
    99  9.8000000000000E-01 -6.2806394778657E-01  7.0963943858946E-01
   100  9.9000000000000E-01 -5.8006836057039E-01  6.8018834166115E-01
   101  1.0000000000000E+00 -5.3186286388060E-01  6.5088529576466E-01
   102  1.0100000000000E+00 -4.8379742632472E-01  6.2179126281980E-01
   103  1.0200000000000E+00 -4.3621365444161E-01  5.9296515213883E-01
   104  1.0300000000000E+00 -3.8944137728246E-01  5.6446358380957E-01
   105  1.0400000000000E+00 -3.4379534543501E-01  5.3634067111885E-01
   106  1.0500000000000E+00 -2.9957208856451E-01  5.0864782430226E-01
   107  1.0600000000000E+00 -2.5704697398641E-01  4.8143357772723E-01
   108  1.0700000000000E+00 -2.1647150660020E-01  4.5474344240669E-01
   109  1.0800000000000E+00 -1.7807090771510E-01  4.2861978550153E-01
   110  1.0900000000000E+00 -1.4204200693003E-01  4.0310173820432E-01
   111  1.1000000000000E+00 -1.0855147733257E-01  3.7822513310788E-01
   112  1.1100000000000E+00 -7.7734439894772E-02  3.5402247185198E-01
   113  1.1200000000000E+00 -4.9693458154242E-02  3.3052292351529E-01
   114  1.1300000000000E+00 -2.4497939094636E-02  3.0775235387926E-01
   115  1.1400000000000E+00 -2.1839507187747E-03  2.8573338534305E-01
   116  1.1500000000000E+00  1.7245538869099E-02  2.6448548691410E-01
   117  1.1600000000000E+00  3.3820001809349E-02  2.4402509334716E-01
   118  1.1700000000000E+00  4.7600277054815E-02  2.2436575215461E-01
   119  1.1800000000000E+00  5.8677095721823E-02  2.0551829687217E-01
   120  1.1900000000000E+00  6.7169223479059E-02  1.8749104463711E-01
   121  1.2000000000000E+00  7.3221243688653E-02  1.7029001582838E-01
   122  1.2100000000000E+00  7.7001010205320E-02  1.5391917323187E-01
   123  1.2200000000000E+00  7.8696803581248E-02  1.3838067793358E-01
   124  1.2300000000000E+00  7.8514228806524E-02  1.2367515891401E-01
   125  1.2400000000000E+00  7.6672896643559E-02  1.0980199311927E-01
   126  1.2500000000000E+00  7.3402933948988E-02  9.6759592623652E-02
   127  1.2600000000000E+00  6.8941371127331E-02  8.4545695375832E-02
   128  1.2700000000000E+00  6.3528456960092E-02  7.3157655938497E-02
   129  1.2800000000000E+00  5.7403952462287E-02  6.2592732591266E-02
   130  1.2900000000000E+00  5.0803456130495E-02  5.2848367169147E-02
   131  1.3000000000000E+00  4.3954812931778E-02  4.3922454054968E-02
   132  1.3100000000000E+00  3.7074664968994E-02  3.5813593452400E-02
   133  1.3200000000000E+00  3.0365143394968E-02  2.8521336693852E-02
   134  1.3300000000000E+00  2.4010946021792E-02  2.2046379086082E-02
   135  1.3400000000000E+00  1.8167325890032E-02  1.6392733853376E-02
   136  1.3500000000000E+00  1.2964755597332E-02  1.1566098089852E-02
   137  1.3600000000000E+00  8.5311218396839E-03  7.5690277890150E-03
   138  1.3700000000000E+00  4.9654779936412E-03  4.4066643513190E-03
   139  1.3800000000000E+00  2.3378912988067E-03  2.0872217293093E-03
   140  1.3900000000000E+00  6.8049944318075E-04  6.1452939769404E-04
   141  1.4000000000000E+00  3.0982968892482E-05  2.8506774337845E-05
   142  1.4100000000000E+00 -1.1954544275555E-06 -1.1071848066869E-06
   143  1.4200000000000E+00 -4.4764662562282E-07 -4.0658074691795E-07
   144  1.4300 -0.  0.
   145  1.4400  0.  0.
   146  1.4500  0.  0.
   147  1.4600  0.  0.
   148  1.4700  0.  0.
   149  1.4800  0.  0.
   150  1.4900  0.  0.
   151  1.5000  0.  0.
   152  1.5100  0.  0.
   153  1.5200  0.  0.
   154  1.5300  0.  0.
   155  1.5400  0.  0.
   156  1.5500  0.  0.
   157  1.5600  0.  0.
   158  1.5700  0.  0.
   159  1.5800  0.  0.
   160  1.5900  0.  0.
   161  1.6000  0.  0.
   162  1.6100  0.  0.
   163  1.6200  0.  0.
   164  1.6300  0.  0.
   165  1.6400  0.  0.
   166  1.6500  0.  0.
   167  1.6600  0.  0.
   168  1.6700  0.  0.
   169  1.6800  0.  0.
   170  1.6900  0.  0.
   171  1.7000  0.  0.
   172  1.7100  0.  0.
   173  1.7200  0.  0.
   174  1.7300  0.  0.
   175  1.7400  0.  0.
   176  1.7500  0.  0.
   177  1.7600  0.  0.
   178  1.7700  0.  0.
   179  1.7800  0.  0.
   180  1.7900  0.  0.
   181  1.8000  0.  0.
   182  1.8100  0.  0.
   183  1.8200  0.  0.
   184  1.8300  0.  0.
   185  1.8400  0.  0.
   186  1.8500  0.  0.
   187  1.8600  0.  0.
   188  1.8700  0.  0.
   189  1.8800  0.  0.
   190  1.8900  0.  0.
   191  1.9000  0.  0.
   192  1.9100  0.  0.
   193  1.9200  0.  0.
   194  1.9300  0.  0.
   195  1.9400  0.  0.
   196  1.9500  0.  0.
   197  1.9600  0.  0.
   198  1.9700  0.  0.
   199  1.9800  0.  0.
   200  1.9900  0.  0.
   201  2.0000  0.  0.
   202  2.0100  0.  0.
   203  2.0200  0.  0.
   204  2.0300  0.  0.
   205  2.0400  0.  0.
   206  2.0500  0.  0.
   207  2.0600  0.  0.
   208  2.0700  0.  0.
   209  2.0800  0.  0.
   210  2.0900  0.  0.
   211  2.1000  0.  0.
   212  2.1100  0.  0.
   213  2.1200  0.  0.
   214  2.1300  0.  0.
   215  2.1400  0.  0.
   216  2.1500  0.  0.
   217  2.1600  0.  0.
   218  2.1700  0.  0.
   219  2.1800  0.  0.
   220  2.1900  0.  0.
   221  2.2000  0.  0.
   222  2.2100  0.  0.
   223  2.2200  0.  0.
   224  2.2300  0.  0.
   225  2.2400  0.  0.
   226  2.2500  0.  0.
   227  2.2600  0.  0.
   228  2.2700  0.  0.
   229  2.2800  0.  0.
   230  2.2900  0.  0.
   231  2.3000  0.  0.
   232  2.3100  0.  0.
   233  2.3200  0.  0.
   234  2.3300  0.  0.
   235  2.3400  0.  0.
   236  2.3500  0.  0.
   237  2.3600  0.  0.
   238  2.3700  0.  0.
   239  2.3800  0.  0.
   240  2.3900  0.  0.
   241  2.4000  0.  0.
   242  2.4100  0.  0.
   243  2.4200  0.  0.
   244  2.4300  0.  0.
   245  2.4400  0.  0.
   246  2.4500  0.  0.
   247  2.4600  0.  0.
   248  2.4700  0.  0.
   249  2.4800  0.  0.
   250  2.4900  0.  0.
   251  2.5000  0.  0.
   252  2.5100  0.  0.
   253  2.5200  0.  0.
   254  2.5300  0.  0.
   255  2.5400  0.  0.
   256  2.5500  0.  0.
   257  2.5600  0.  0.
   258  2.5700  0.  0.
   259  2.5800  0.  0.
   260  2.5900  0.  0.
   261  2.6000  0.  0.
   262  2.6100  0.  0.
   263  2.6200  0.  0.
   264  2.6300  0.  0.
   265  2.6400  0.  0.
   266  2.6500  0.  0.
   267  2.6600  0.  0.
   268  2.6700  0.  0.
   269  2.6800  0.  0.
   270  2.6900  0.  0.
   271  2.7000  0.  0.
   272  2.7100  0.  0.
   273  2.7200  0.  0.
   274  2.7300  0.  0.
   275  2.7400  0.  0.
   276  2.7500  0.  0.
   277  2.7600  0.  0.
   278  2.7700  0.  0.
   279  2.7800  0.  0.
   280  2.7900  0.  0.
   281  2.8000  0.  0.
   282  2.8100  0.  0.
   283  2.8200  0.  0.
   284  2.8300  0.  0.
   285  2.8400  0.  0.
   286  2.8500  0.  0.
   287  2.8600  0.  0.
   288  2.8700  0.  0.
   289  2.8800  0.  0.
   290  2.8900  0.  0.
   291  2.9000  0.  0.
   292  2.9100  0.  0.
   293  2.9200  0.  0.
   294  2.9300  0.  0.
   295  2.9400  0.  0.
   296  2.9500  0.  0.
   297  2.9600  0.  0.
   298  2.9700  0.  0.
   299  2.9800  0.  0.
   300  2.9900  0.  0.
   301  3.0000  0.  0.
   302  3.0100  0.  0.
   303  3.0200  0.  0.
   304  3.0300  0.  0.
   305  3.0400  0.  0.
   306  3.0500  0.  0.
   307  3.0600  0.  0.
   308  3.0700  0.  0.
   309  3.0800  0.  0.
   310  3.0900  0.  0.
   311  3.1000  0.  0.
   312  3.1100  0.  0.
   313  3.1200  0.  0.
   314  3.1300  0.  0.
   315  3.1400  0.  0.
   316  3.1500  0.  0.
   317  3.1600  0.  0.
   318  3.1700  0.  0.
   319  3.1800  0.  0.
   320  3.1900  0.  0.
   321  3.2000  0.  0.
   322  3.2100  0.  0.
   323  3.2200  0.  0.
   324  3.2300  0.  0.
   325  3.2400  0.  0.
   326  3.2500  0.  0.
   327  3.2600  0.  0.
   328  3.2700  0.  0.
   329  3.2800  0.  0.
   330  3.2900  0.  0.
   331  3.3000  0.  0.
   332  3.3100  0.  0.
   333  3.3200  0.  0.
   334  3.3300  0.  0.
   335  3.3400  0.  0.
   336  3.3500  0.  0.
   337  3.3600  0.  0.
   338  3.3700  0.  0.
   339  3.3800  0.  0.
   340  3.3900  0.  0.
   341  3.4000  0.  0.
   342  3.4100  0.  0.
   343  3.4200  0.  0.
   344  3.4300  0.  0.
   345  3.4400  0.  0.
   346  3.4500  0.  0.
   347  3.4600  0.  0.
   348  3.4700  0.  0.
   349  3.4800  0.  0.
   350  3.4900  0.  0.
   351  3.5000  0.  0.
   352  3.5100  0.  0.
   353  3.5200  0.  0.
   354  3.5300  0.  0.
   355  3.5400  0.  0.
   356  3.5500  0.  0.
   357  3.5600  0.  0.
   358  3.5700  0.  0.
   359  3.5800  0.  0.
   360  3.5900  0.  0.
   361  3.6000  0.  0.
   362  3.6100  0.  0.
   363  3.6200  0.  0.
   364  3.6300  0.  0.
   365  3.6400  0.  0.
   366  3.6500  0.  0.
   367  3.6600  0.  0.
   368  3.6700  0.  0.
   369  3.6800  0.  0.
   370  3.6900  0.  0.
   371  3.7000  0.  0.
   372  3.7100  0.  0.
   373  3.7200  0.  0.
   374  3.7300  0.  0.
   375  3.7400  0.  0.
   376  3.7500  0.  0.
   377  3.7600  0.  0.
   378  3.7700  0.  0.
   379  3.7800  0.  0.
   380  3.7900  0.  0.
   381  3.8000  0.  0.
   382  3.8100  0.  0.
   383  3.8200  0.  0.
   384  3.8300  0.  0.
   385  3.8400  0.  0.
   386  3.8500  0.  0.
   387  3.8600  0.  0.
   388  3.8700  0.  0.
   389  3.8800  0.  0.
   390  3.8900  0.  0.
   391  3.9000  0.  0.
   392  3.9100  0.  0.
   393  3.9200  0.  0.
   394  3.9300  0.  0.
   395  3.9400  0.  0.
   396  3.9500  0.  0.
   397  3.9600  0.  0.
   398  3.9700  0.  0.
   399  3.9800  0.  0.
   400  3.9900  0.  0.
   1                        -4.6085270735560E+00 -1.4182853982755E+00
     1  0.0000000000000E+00  2.4702117573661E-09 -5.4212736591563E-09
     2  1.0000000000000E-02  1.3281164605318E-03 -7.4489861522002E-04
     3  2.0000000000000E-02  5.3057185161997E-03 -2.9703029129588E-03
     4  3.0000000000000E-02  1.1912642156562E-02 -6.6484956538838E-03
     5  4.0000000000000E-02  2.1115539116903E-02 -1.1733802876286E-02
     6  5.0000000000000E-02  3.2868259386224E-02 -1.8163364765345E-02
     7  6.0000000000000E-02  4.7112376585065E-02 -2.5858192542198E-02
     8  7.0000000000000E-02  6.3777846330964E-02 -3.4724489610978E-02
     9  8.0000000000000E-02  8.2783785239141E-02 -4.4655209780679E-02
    10  9.0000000000000E-02  1.0403935599039E-01 -5.5531820530592E-02
    11  1.0000000000000E-01  1.2744474198326E-01 -6.7226235117471E-02
    12  1.1000000000000E-01  1.5289219351297E-01 -7.9602873917062E-02
    13  1.2000000000000E-01  1.8026712621703E-01 -9.2520812825397E-02
    14  1.3000000000000E-01  2.0944925172355E-01 -1.0583597487156E-01
    15  1.4000000000000E-01  2.4031372004763E-01 -1.1940332044990E-01
    16  1.5000000000000E-01  2.7273225331339E-01 -1.3307899178284E-01
    17  1.6000000000000E-01  3.0657425083332E-01 -1.4672236837358E-01
    18  1.7000000000000E-01  3.4170784644289E-01 -1.6019799227733E-01
    19  1.8000000000000E-01  3.7800090024918E-01 -1.7337732496939E-01
    20  1.9000000000000E-01  4.1532190858169E-01 -1.8614030135732E-01
    21  2.0000000000000E-01  4.5354081789732E-01 -1.9837665099467E-01
    22  2.1000000000000E-01  4.9252973064911E-01 -2.0998696171141E-01
    23  2.2000000000000E-01  5.3216349363251E-01 -2.2088346657435E-01
    24  2.3000000000000E-01  5.7232016202189E-01 -2.3099054120881E-01
    25  2.4000000000000E-01  6.1288133514648E-01 -2.4024490492313E-01
    26  2.5000000000000E-01  6.5373236297008E-01 -2.4859552564397E-01
    27  2.6000000000000E-01  6.9476242517114E-01 -2.5600323525433E-01
    28  2.7000000000000E-01  7.3586448760715E-01 -2.6244006838690E-01
    29  2.8000000000000E-01  7.7693514372868E-01 -2.6788834392481E-01
    30  2.9000000000000E-01  8.1787435112486E-01 -2.7233951426673E-01
    31  3.0000000000000E-01  8.5858507577643E-01 -2.7579281269713E-01
    32  3.1000000000000E-01  8.9897285871521E-01 -2.7825373385038E-01
    33  3.2000000000000E-01  9.3894532159084E-01 -2.7973238616558E-01
    34  3.3000000000000E-01  9.7841162908987E-01 -2.8024175831024E-01
    35  3.4000000000000E-01  1.0172819272041E+00 -2.7979594373322E-01
    36  3.5000000000000E-01  1.0554667769814E+00 -2.7840836873846E-01
    37  3.6000000000000E-01  1.0928766035948E+00 -2.7609006971737E-01
    38  3.7000000000000E-01  1.1294211803320E+00 -2.7284806442658E-01
    39  3.8000000000000E-01  1.1650091664318E+00 -2.6868386045719E-01
    40  3.9000000000000E-01  1.1995477165960E+00 -2.6359214134030E-01
    41  4.0000000000000E-01  1.2329421784988E+00 -2.5755966712046E-01
    42  4.1000000000000E-01  1.2650958927314E+00 -2.5056442177300E-01
    43  4.2000000000000E-01  1.2959101073945E+00 -2.4257503462851E-01
    44  4.3000000000000E-01  1.3252840170293E+00 -2.3355049710282E-01
    45  4.4000000000000E-01  1.3531149328070E+00 -2.2344018963016E-01
    46  4.5000000000000E-01  1.3792985879387E+00 -2.1218422689164E-01
    47  4.6000000000000E-01  1.4037295791757E+00 -1.9971412236028E-01
    48  4.7000000000000E-01  1.4263019421130E+00 -1.8595376599369E-01
    49  4.8000000000000E-01  1.4469098548523E+00 -1.7082070174681E-01
    50  4.9000000000000E-01  1.4654484614840E+00 -1.5422768460111E-01
    51  5.0000000000000E-01  1.4818148038906E+00 -1.3608449016195E-01
    52  5.1000000000000E-01  1.4959088475980E+00 -1.1629994370592E-01
    53  5.2000000000000E-01  1.5076345848925E+00 -9.4784130000491E-02
    54  5.3000000000000E-01  1.5169011962112E+00 -7.1450740392367E-02
    55  5.4000000000000E-01  1.5236242489686E+00 -4.6219509679553E-02
    56  5.5000000000000E-01  1.5277269115343E+00 -1.9018692238370E-02
    57  5.6000000000000E-01  1.5291411590720E+00  1.0212475153459E-02
    58  5.7000000000000E-01  1.5278089473960E+00  4.1521377317824E-02
    59  5.8000000000000E-01  1.5236833309445E+00  7.4939744879463E-02
    60  5.9000000000000E-01  1.5167295013802E+00  1.1048155079274E-01
    61  6.0000000000000E-01  1.5069257242444E+00  1.4814112895201E-01
    62  6.1000000000000E-01  1.4942641524646E+00  1.8789156121410E-01
    63  6.2000000000000E-01  1.4787514973505E+00  2.2968337471489E-01
    64  6.3000000000000E-01  1.4604095399641E+00  2.7344358597824E-01
    65  6.4000000000000E-01  1.4392754683844E+00  3.1907512209133E-01
    66  6.5000000000000E-01  1.4154020293495E+00  3.6645664227197E-01
    67  6.6000000000000E-01  1.3888574860035E+00  4.1544277561166E-01
    68  6.7000000000000E-01  1.3597253769334E+00  4.6586478278892E-01
    69  6.8000000000000E-01  1.3281040752882E+00  5.1753164126645E-01
    70  6.9000000000000E-01  1.2941061504585E+00  5.7023154507742E-01
    71  7.0000000000000E-01  1.2578575384899E+00  6.2373380193786E-01
    72  7.1000000000000E-01  1.2194965310284E+00  6.7779110226568E-01
    73  7.2000000000000E-01  1.1791725960841E+00  7.3214212690681E-01
    74  7.3000000000000E-01  1.1370450471756E+00  7.8651445313022E-01
    75  7.4000000000000E-01  1.0932815804185E+00  8.4062771190684E-01
    76  7.5000000000000E-01  1.0480567017786E+00  8.9419694377486E-01
    77  7.6000000000000E-01  1.0015500689735E+00  9.4693609584119E-01
    78  7.7000000000000E-01  9.5394477432573E-01  9.9856159878392E-01
    79  7.8000000000000E-01  9.0542559619821E-01  1.0487959601915E+00
    80  7.9000000000000E-01  8.5617724745868E-01  1.0973713092680E+00
    81  8.0000000000000E-01  8.0638264969231E-01  1.1440328278905E+00
    82  8.1000000000000E-01  7.5622126160627E-01  1.1885420042452E+00
    83  8.2000000000000E-01  7.0586748924291E-01  1.2306796477814E+00
    84  8.3000000000000E-01  6.5548920425194E-01  1.2702486079774E+00
    85  8.4000000000000E-01  6.0524639458681E-01  1.3070761443512E+00
    86  8.5000000000000E-01  5.5528996961953E-01  1.3410159011821E+00
    87  8.6000000000000E-01  5.0576073885212E-01  1.3719494474454E+00
    88  8.7000000000000E-01  4.5678858019376E-01  1.3997873503570E+00
    89  8.8000000000000E-01  4.0849181022928E-01  1.4244697595510E+00
    90  8.9000000000000E-01  3.6097676509370E-01  1.4459664880916E+00
    91  9.0000000000000E-01  3.1433759656165E-01  1.4642765860932E+00
    92  9.1000000000000E-01  2.6865628383620E-01  1.4794274124940E+00
    93  9.2000000000000E-01  2.2400285735986E-01  1.4914732203119E+00
    94  9.3000000000000E-01  1.8043582685182E-01  1.5004932803138E+00
    95  9.4000000000000E-01  1.3800280178219E-01  1.5065895772638E+00
    96  9.5000000000000E-01  9.6741288705890E-02  1.5098841215830E+00
    97  9.6000000000000E-01  5.6679646371776E-02  1.5105159271923E+00
    98  9.7000000000000E-01  1.7838176369062E-02  1.5086377133416E+00
    99  9.8000000000000E-01 -1.9769675661264E-02  1.5044123942088E+00
   100  9.9000000000000E-01 -5.6136035481471E-02  1.4980094248549E+00
   101  1.0000000000000E+00 -9.1257261342138E-02  1.4896010756251E+00
   102  1.0100000000000E+00 -1.2513258082912E-01  1.4793587092236E+00
   103  1.0200000000000E+00 -1.5776273417985E-01  1.4674491353824E+00
   104  1.0300000000000E+00 -1.8914865474148E-01  1.4540311172808E+00
   105  1.0400000000000E+00 -2.1929021659360E-01  1.4392521016314E+00
   106  1.0500000000000E+00 -2.4818507810175E-01  1.4232452406730E+00
   107  1.0600000000000E+00 -2.7582764831887E-01  1.4061267692347E+00
   108  1.0700000000000E+00 -3.0220820075043E-01  1.3879937936702E+00
   109  1.0800000000000E+00 -3.2731215607458E-01  1.3689225418763E+00
   110  1.0900000000000E+00 -3.5111955202525E-01  1.3489671149792E+00
   111  1.1000000000000E+00 -3.7360471486215E-01  1.3281587717258E+00
   112  1.1100000000000E+00 -3.9473614272860E-01  1.3065057663221E+00
   113  1.1200000000000E+00 -4.1447660683921E-01  1.2839937496647E+00
   114  1.1300000000000E+00 -4.3278347188607E-01  1.2605867327080E+00
   115  1.1400000000000E+00 -4.4960923245041E-01  1.2362285994747E+00
   116  1.1500000000000E+00 -4.6490225757540E-01  1.2108451459649E+00
   117  1.1600000000000E+00 -4.7860773116593E-01  1.1843466103964E+00
   118  1.1700000000000E+00 -4.9066877154017E-01  1.1566306497988E+00
   119  1.1800000000000E+00 -5.0102770943175E-01  1.1275857084115E+00
   120  1.1900000000000E+00 -5.0962750004398E-01  1.0970947146104E+00
   121  1.2000000000000E+00 -5.1641324151852E-01  1.0650390355334E+00
   122  1.2100000000000E+00 -5.2133376943639E-01  1.0313026122580E+00
   123  1.2200000000000E+00 -5.2434329478952E-01  9.9577619348589E-01
   124  1.2300000000000E+00 -5.2540305130370E-01  9.5836158232249E-01
   125  1.2400000000000E+00 -5.2448291707752E-01  9.1897580896264E-01
   126  1.2500000000000E+00 -5.2156297527386E-01  8.7755514199394E-01
   127  1.2600000000000E+00 -5.1663497905431E-01  8.3405885259811E-01
   128  1.2700000000000E+00 -5.0970368710106E-01  7.8847264919929E-01
   129  1.2800000000000E+00 -5.0078803789110E-01  7.4081170498387E-01
   130  1.2900000000000E+00 -4.8992213336260E-01  6.9112320717081E-01
   131  1.3000000000000E+00 -4.7715600570547E-01  6.3948836484018E-01
   132  1.3100000000000E+00 -4.6255614464566E-01  5.8602382135465E-01
   133  1.3200000000000E+00 -4.4620576672778E-01  5.3088242780978E-01
   134  1.3300000000000E+00 -4.2820481267427E-01  4.7425334537793E-01
   135  1.3400000000000E+00 -4.0866966379599E-01  4.1636145658218E-01
   136  1.3500000000000E+00 -3.8773257356920E-01  3.5746607825236E-01
   137  1.3600000000000E+00 -3.6554081582143E-01  2.9785898204098E-01
   138  1.3700000000000E+00 -3.4225555632314E-01  2.3786174151610E-01
   139  1.3800000000000E+00 -3.1805045993511E-01  1.7782243796414E-01
   140  1.3900000000000E+00 -2.9311005060349E-01  1.1811176951965E-01
   141  1.4000000000000E+00 -2.6762784516069E-01  5.9118615779301E-02
   142  1.4100000000000E+00 -2.4180428379648E-01  1.2451111846119E-03
   143  1.4200000000000E+00 -2.1584427325218E-01 -5.5099452261092E-02
   144  1.4300000000000E+00 -1.8995447842677E-01 -1.0950540490827E-01
   145  1.4400000000000E+00 -1.6434076435161E-01 -1.6156878432762E-01
   146  1.4500000000000E+00 -1.3920563790567E-01 -2.1089734239482E-01
   147  1.4600000000000E+00 -1.1474567672640E-01 -2.5711656864750E-01
   148  1.4700000000000E+00 -9.1148989415543E-02 -2.9987561965175E-01
   149  1.4800000000000E+00 -6.8592749736350E-02 -3.3885304971003E-01
   150  1.4900000000000E+00 -4.7240847148128E-02 -3.7376223915569E-01
   151  1.5000000000000E+00 -2.7241694687977E-02 -4.0435642006181E-01
   152  1.5100000000000E+00 -8.7262331117481E-03 -4.3043320463390E-01
   153  1.5200000000000E+00  8.1938325937420E-03 -4.5183852868039E-01
   154  1.5300000000000E+00  2.3427531708801E-02 -4.6846993138406E-01
   155  1.5400000000000E+00  3.6905832794352E-02 -4.8027910294975E-01
   156  1.5500000000000E+00  4.8582531382942E-02 -4.8727364332566E-01
   157  1.5600000000000E+00  5.8434801671808E-02 -4.8951798805558E-01
   158  1.5700000000000E+00  6.6463399067640E-02 -4.8713347102326E-01
   159  1.5800000000000E+00  7.2692506262456E-02 -4.8029750828385E-01
   160  1.5900000000000E+00  7.7169221528139E-02 -4.6924190201486E-01
   161  1.6000000000000E+00  7.9962694025961E-02 -4.5425027868175E-01
   162  1.6100000000000E+00  8.1162916969229E-02 -4.3565469037589E-01
   163  1.6200000000000E+00  8.0879195435495E-02 -4.1383142291830E-01
   164  1.6300000000000E+00  7.9238311298442E-02 -3.8919606823693E-01
   165  1.6400000000000E+00  7.6382413090693E-02 -3.6219793159253E-01
   166  1.6500000000000E+00  7.2466663507977E-02 -3.3331385619611E-01
   167  1.6600000000000E+00  6.7656681628547E-02 -3.0304155839347E-01
   168  1.6700000000000E+00  6.2125820664327E-02 -2.7189257568065E-01
   169  1.6800000000000E+00  5.6052324215939E-02 -2.4038493523449E-01
   170  1.6900000000000E+00  4.9616416306942E-02 -2.0903567809428E-01
   171  1.7000000000000E+00  4.2997337038154E-02 -1.7835327946598E-01
   172  1.7100000000000E+00  3.6370442266932E-02 -1.4883023709377E-01
   173  1.7200000000000E+00  2.9905364027408E-02 -1.2093803770989E-01
   174  1.7300000000000E+00  2.3762926284422E-02 -9.5119460778476E-02
   175  1.7400000000000E+00  1.8089196432925E-02 -7.1774632011600E-02
   176  1.7500000000000E+00  1.3015948913112E-02 -5.1261220961631E-02
   177  1.7600000000000E+00  8.6585400963613E-03 -3.3889083966007E-02
   178  1.7700000000000E+00  5.1140893070217E-03 -1.9915679647398E-02
   179  1.7800000000000E+00  2.4603522059954E-03 -9.5437803202473E-03
   180  1.7900000000000E+00  7.4818410225804E-04 -2.8940193479478E-03
   181  1.8000000000000E+00  4.9782206088305E-05 -1.9209785416413E-04
   182  1.8100000000000E+00 -1.7387937028772E-05  6.7036449868686E-05
   183  1.8200000000000E+00  7.3605677638908E-06 -2.8403437943950E-05
   184  1.8300 -0.  0.
   185  1.8400 -0.  0.
   186  1.8500  0.  0.
   187  1.8600  0.  0.
   188  1.8700  0.  0.
   189  1.8800  0.  0.
   190  1.8900  0.  0.
   191  1.9000  0.  0.
   192  1.9100  0.  0.
   193  1.9200  0.  0.
   194  1.9300  0.  0.
   195  1.9400  0.  0.
   196  1.9500  0.  0.
   197  1.9600  0.  0.
   198  1.9700  0.  0.
   199  1.9800  0.  0.
   200  1.9900  0.  0.
   201  2.0000  0.  0.
   202  2.0100  0.  0.
   203  2.0200  0.  0.
   204  2.0300  0.  0.
   205  2.0400  0.  0.
   206  2.0500  0.  0.
   207  2.0600  0.  0.
   208  2.0700  0.  0.
   209  2.0800  0.  0.
   210  2.0900  0.  0.
   211  2.1000  0.  0.
   212  2.1100  0.  0.
   213  2.1200  0.  0.
   214  2.1300  0.  0.
   215  2.1400  0.  0.
   216  2.1500  0.  0.
   217  2.1600  0.  0.
   218  2.1700  0.  0.