Na    ONCVPSP-4.0.1  r_core=   1.77096   2.20971
     11.0000      9.0000      220318    zatom,zion,pspd
     8      11   1     4   400     0    pspcod,pspxc,lmax,lloc,mmax,r2well
  3.99000000  0.00000000  0.00000000    rchrg fchrg qchrg
     2     2     0     0     0    nproj
     1     1           extension_switch
   0                         1.6953352794875E+00 -6.2238965439355E-01
     1  0.0000000000000E+00 -2.3804702653507E-10  3.8723024786691E-11
     2  1.0000000000000E-02  1.0289309446364E-01  2.5698938217943E-02
     3  2.0000000000000E-02  2.0537180298422E-01  5.1422702011001E-02
     4  3.0000000000000E-02  3.0702369607374E-01  7.7195848054890E-02
     5  4.0000000000000E-02  4.0744024670097E-01  1.0304239689062E-01
     6  5.0000000000000E-02  5.0621875544709E-01  1.2898556900754E-01
     7  6.0000000000000E-02  6.0296424454261E-01  1.5504752587935E-01
     8  7.0000000000000E-02  6.9729131069309E-01  1.8124911755869E-01
     9  8.0000000000000E-02  7.8882592683888E-01  2.0760963839674E-01
    10  9.0000000000000E-02  8.7720718328917E-01  2.3414659240686E-01
    11  1.0000000000000E-01  9.6208895902086E-01  2.6087546973390E-01
    12  1.1000000000000E-01  1.0431415143355E+00  2.8780953562551E-01
    13  1.2000000000000E-01  1.1200529965221E+00  3.1495963322780E-01
    14  1.3000000000000E-01  1.1925308506740E+00  3.4233400144619E-01
    15  1.4000000000000E-01  1.2603031283579E+00  3.6993810902329E-01
    16  1.5000000000000E-01  1.3231196874174E+00  3.9777450588974E-01
    17  1.6000000000000E-01  1.3807532768251E+00  4.2584269274217E-01
    18  1.7000000000000E-01  1.4330005011556E+00  4.5413900969459E-01
    19  1.8000000000000E-01  1.4796826599460E+00  4.8265654473682E-01
    20  1.9000000000000E-01  1.5206464579276E+00  5.1138506261673E-01
    21  2.0000000000000E-01  1.5557645828549E+00  5.4031095464234E-01
    22  2.1000000000000E-01  1.5849361484160E+00  5.6941720977588E-01
    23  2.2000000000000E-01  1.6080870004800E+00  5.9868340726684E-01
    24  2.3000000000000E-01  1.6251698857188E+00  6.2808573094281E-01
    25  2.4000000000000E-01  1.6361644824217E+00  6.5759700514980E-01
    26  2.5000000000000E-01  1.6410772941086E+00  6.8718675220511E-01
    27  2.6000000000000E-01  1.6399414073212E+00  7.1682127109904E-01
    28  2.7000000000000E-01  1.6328161157407E+00  7.4646373705614E-01
    29  2.8000000000000E-01  1.6197864135301E+00  7.7607432144305E-01
    30  2.9000000000000E-01  1.6009623615347E+00  8.0561033139035E-01
    31  3.0000000000000E-01  1.5764783306772E+00  8.3502636837867E-01
    32  3.1000000000000E-01  1.5464921275664E+00  8.6427450492780E-01
    33  3.2000000000000E-01  1.5111840079831E+00  8.9330447842029E-01
    34  3.3000000000000E-01  1.4707555845156E+00  9.2206390098984E-01
    35  3.4000000000000E-01  1.4254286351882E+00  9.5049848431023E-01
    36  3.5000000000000E-01  1.3754438204463E+00  9.7855227803214E-01
    37  3.6000000000000E-01  1.3210593163450E+00  1.0061679205351E+00
    38  3.7000000000000E-01  1.2625493722092E+00  1.0332869005891E+00
    39  3.8000000000000E-01  1.2002028014119E+00  1.0598498284561E+00
    40  3.9000000000000E-01  1.1343214142345E+00  1.0857967149067E+00
    41  4.0000000000000E-01  1.0652184020354E+00  1.1110672565790E+00
    42  4.1000000000000E-01  9.9321668215731E-01  1.1356011260734E+00
    43  4.2000000000000E-01  9.1864721314822E-01  1.1593382651447E+00
    44  4.3000000000000E-01  8.4184728995279E-01  1.1822191793386E+00
    45  4.4000000000000E-01  7.6315882875708E-01  1.2041852324114E+00
    46  4.5000000000000E-01  6.8292665112947E-01  1.2251789388710E+00
    47  4.6000000000000E-01  6.0149677700423E-01  1.2451442529931E+00
    48  4.7000000000000E-01  5.1921473589763E-01  1.2640268526835E+00
    49  4.8000000000000E-01  4.3642390553134E-01  1.2817744165929E+00
    50  4.9000000000000E-01  3.5346388676774E-01  1.2983368929282E+00
    51  5.0000000000000E-01  2.7066892343685E-01  1.3136667584551E+00
    52  5.1000000000000E-01  1.8836637525877E-01  1.3277192662458E+00
    53  5.2000000000000E-01  1.0687525164026E-01  1.3404526807922E+00
    54  5.3000000000000E-01  2.6504813654339E-02  1.3518284991813E+00
    55  5.4000000000000E-01 -5.2446749000346E-02  1.3618116571098E+00
    56  5.5000000000000E-01 -1.2969355981450E-01  1.3703707186099E+00
    57  5.6000000000000E-01 -2.0496321039499E-01  1.3774780484482E+00
    58  5.7000000000000E-01 -2.7799782345594E-01  1.3831099662695E+00
    59  5.8000000000000E-01 -3.4855501946503E-01  1.3872468816583E+00
    60  5.9000000000000E-01 -4.1640878319631E-01  1.3898734094083E+00
    61  6.0000000000000E-01 -4.8135022711603E-01  1.3909784644054E+00
    62  6.1000000000000E-01 -5.4318824921420E-01  1.3905553356464E+00
    63  6.2000000000000E-01 -6.0175008358708E-01  1.3886017390437E+00
    64  6.3000000000000E-01 -6.5688174276814E-01  1.3851198487849E+00
    65  6.4000000000000E-01 -7.0844835149434E-01  1.3801163071429E+00
    66  6.5000000000000E-01 -7.5633437227360E-01  1.3736022127591E+00
    67  6.6000000000000E-01 -8.0044372378568E-01  1.3655930875446E+00
    68  6.7000000000000E-01 -8.4069979379487E-01  1.3561088224666E+00
    69  6.8000000000000E-01 -8.7704534887770E-01  1.3451736026130E+00
    70  6.9000000000000E-01 -9.0944234386423E-01  1.3328158120395E+00
    71  7.0000000000000E-01 -9.3787163445722E-01  1.3190679190251E+00
    72  7.1000000000000E-01 -9.6233259702191E-01  1.3039663424671E+00
    73  7.2000000000000E-01 -9.8284266003045E-01  1.2875513002539E+00
    74  7.3000000000000E-01 -9.9943675209272E-01  1.2698666405556E+00
    75  7.4000000000000E-01 -1.0121666719092E+00  1.2509596570610E+00
    76  7.5000000000000E-01 -1.0211003858374E+00  1.2308808892826E+00
    77  7.6000000000000E-01 -1.0263212590703E+00  1.2096839091249E+00
    78  7.7000000000000E-01 -1.0279272266805E+00  1.1874250949878E+00
    79  7.8000000000000E-01 -1.0260299109881E+00  1.1641633947356E+00
    80  7.9000000000000E-01 -1.0207536918594E+00  1.1399600789221E+00
    81  8.0000000000000E-01 -1.0122347366414E+00  1.1148784857043E+00
    82  8.1000000000000E-01 -1.0006199964811E+00  1.0889837589164E+00
    83  8.2000000000000E-01 -9.8606617576753E-01  1.0623425808019E+00
    84  8.3000000000000E-01 -9.6873868137634E-01  1.0350229009218E+00
    85  8.4000000000000E-01 -9.4881055828179E-01  1.0070936627633E+00
    86  8.5000000000000E-01 -9.2646141794388E-01  9.7862452957450E-01
    87  8.6000000000000E-01 -9.0187636566898E-01  9.4968561093825E-01
    88  8.7000000000000E-01 -8.7524493289227E-01  9.2034719158134E-01
    89  8.8000000000000E-01 -8.4676002003741E-01  8.9067946388368E-01
    90  8.9000000000000E-01 -8.1661685527784E-01  8.6075226551633E-01
    91  9.0000000000000E-01 -7.8501197415878E-01  8.3063482358989E-01
    92  9.1000000000000E-01 -7.5214222464190E-01  8.0039550664078E-01
    93  9.2000000000000E-01 -7.1820380170996E-01  7.7010158572008E-01
    94  9.3000000000000E-01 -6.8339131522181E-01  7.3981900577999E-01
    95  9.4000000000000E-01 -6.4789689424031E-01  7.0961216847636E-01
    96  9.5000000000000E-01 -6.1190933057476E-01  6.7954372742245E-01
    97  9.6000000000000E-01 -5.7561326378601E-01  6.4967439684064E-01
    98  9.7000000000000E-01 -5.3918840940426E-01  6.2006277446472E-01
    99  9.8000000000000E-01 -5.0280883160821E-01  5.9076517944726E-01
   100  9.9000000000000E-01 -4.6664226111549E-01  5.6183550592438E-01
   101  1.0000000000000E+00 -4.3084945854220E-01  5.3332509278527E-01
   102  1.0100000000000E+00 -3.9558362300726E-01  5.0528261008633E-01
   103  1.0200000000000E+00 -3.6098984528911E-01  4.7775396244070E-01
   104  1.0300000000000E+00 -3.2720460439331E-01  4.5078220960438E-01
   105  1.0400000000000E+00 -2.9435530596005E-01  4.2440750436983E-01
   106  1.0500000000000E+00 -2.6255986053724E-01  3.9866704776914E-01
   107  1.0600000000000E+00 -2.3192629936759E-01  3.7359506148021E-01
   108  1.0700000000000E+00 -2.0255242499204E-01  3.4922277722454E-01
   109  1.0800000000000E+00 -1.7452549365676E-01  3.2557844284116E-01
   110  1.0900000000000E+00 -1.4792192623110E-01  3.0268734462250E-01
   111  1.1000000000000E+00 -1.2280704409955E-01  2.8057184540203E-01
   112  1.1100000000000E+00 -9.9234826282757E-02  2.5925143779299E-01
   113  1.1200000000000E+00 -7.7247683874028E-02  2.3874281189190E-01
   114  1.1300000000000E+00 -5.6876247745834E-02  2.1905993668115E-01
   115  1.1400000000000E+00 -3.8139165389180E-02  2.0021415429133E-01
   116  1.1500000000000E+00 -2.1042902694291E-02  1.8221428621755E-01
   117  1.1600000000000E+00 -5.5815464651782E-03  1.6506675052453E-01
   118  1.1700000000000E+00  8.2633965181986E-03  1.4877568902303E-01
   119  1.1800000000000E+00  2.0523208116882E-02  1.3334310338478E-01
   120  1.1900000000000E+00  3.1242180191945E-02  1.1876899936666E-01
   121  1.2000000000000E+00  4.0477841125039E-02  1.0505153486570E-01
   122  1.2100000000000E+00  4.8300868008673E-02  9.2187075473178E-02
   123  1.2200000000000E+00  5.4790629031374E-02  8.0169038708378E-02
   124  1.2300000000000E+00  6.0029736687547E-02  6.8986741085406E-02
   125  1.2400000000000E+00  6.4102795732207E-02  5.8625634998300E-02
   126  1.2500000000000E+00  6.7095676430300E-02  4.9067690959480E-02
   127  1.2600000000000E+00  6.9094828853844E-02  4.0291771785923E-02
   128  1.2700000000000E+00  7.0186636313368E-02  3.2273996085372E-02
   129  1.2800000000000E+00  7.0456809937367E-02  2.4988090101118E-02
   130  1.2900000000000E+00  6.9989826333248E-02  1.8405727104224E-02
   131  1.3000000000000E+00  6.8868409605641E-02  1.2496853516138E-02
   132  1.3100000000000E+00  6.7173058764924E-02  7.2300010529755E-03
   133  1.3200000000000E+00  6.4981621084914E-02  2.5725842373443E-03
   134  1.3300000000000E+00  6.2368911739783E-02 -1.5088172660438E-03
   135  1.3400000000000E+00  5.9406379645242E-02 -5.0481919665549E-03
   136  1.3500000000000E+00  5.6161819168671E-02 -8.0798458940412E-03
   137  1.3600000000000E+00  5.2699127051530E-02 -1.0638168272790E-02
   138  1.3700000000000E+00  4.9078103633382E-02 -1.2757413729762E-02
   139  1.3800000000000E+00  4.5354297189949E-02 -1.4471501162570E-02
   140  1.3900000000000E+00  4.1578889989445E-02 -1.5813829303335E-02
   141  1.4000000000000E+00  3.7798624435322E-02 -1.6817108936080E-02
   142  1.4100000000000E+00  3.4055767491267E-02 -1.7513211641082E-02
   143  1.4200000000000E+00  3.0388111408179E-02 -1.7933034862972E-02
   144  1.4300000000000E+00  2.6829008630881E-02 -1.8106383023039E-02
   145  1.4400000000000E+00  2.3407438645891E-02 -1.8061864323034E-02
   146  1.4500000000000E+00  2.0148104417037E-02 -1.7826802820856E-02
   147  1.4600000000000E+00  1.7071556006182E-02 -1.7427165289109E-02
   148  1.4700000000000E+00  1.4194338887290E-02 -1.6887502311224E-02
   149  1.4800000000000E+00  1.1529164450444E-02 -1.6230903009456E-02
   150  1.4900000000000E+00  9.0851001792139E-03 -1.5478962746814E-02
   151  1.5000000000000E+00  6.8677769521171E-03 -1.4651763101788E-02
   152  1.5100000000000E+00  4.8796109938175E-03 -1.3767863365740E-02
   153  1.5200000000000E+00  3.1200379875575E-03 -1.2844302781679E-02
   154  1.5300000000000E+00  1.5857569435702E-03 -1.1896612707319E-02
   155  1.5400000000000E+00  2.7098145030094E-04 -1.0938837862755E-02
   156  1.5500000000000E+00 -8.3230392865645E-04 -9.9835657953718E-03
   157  1.5600000000000E+00 -1.7340843592924E-03 -9.0419636898965E-03
   158  1.5700000000000E+00 -2.4460545869230E-03 -8.1238216301970E-03
   159  1.5800000000000E+00 -2.9813599638072E-03 -7.2376014248805E-03
   160  1.5900000000000E+00 -3.3543405001975E-03 -6.3904901024842E-03
   161  1.6000000000000E+00 -3.5802797526391E-03 -5.5884571968593E-03
   162  1.6100000000000E+00 -3.6751601603537E-03 -4.8363149475245E-03
   163  1.6200000000000E+00 -3.6554263629177E-03 -4.1377805615982E-03
   164  1.6300000000000E+00 -3.5377579477199E-03 -3.4955397095565E-03
   165  1.6400000000000E+00 -3.3388528477164E-03 -2.9113104454731E-03
   166  1.6500000000000E+00 -3.0752205167281E-03 -2.3859065232076E-03
   167  1.6600000000000E+00 -2.7630072050952E-03 -1.9193019822288E-03
   168  1.6700000000000E+00 -2.4177684573929E-03 -1.5106863342575E-03
   169  1.6800000000000E+00 -2.0543559720478E-03 -1.1585259412148E-03
   170  1.6900000000000E+00 -1.6899034149878E-03 -8.6102506076053E-04
   171  1.7000000000000E+00 -1.3428137369897E-03 -6.1611772644506E-04
   172  1.7100000000000E+00 -1.0213175909295E-03 -4.2004600728696E-04
   173  1.7200000000000E+00 -7.3299498563210E-04 -2.6853319627582E-04
   174  1.7300000000000E+00 -4.8470487287003E-04 -1.5684497830103E-04
   175  1.7400000000000E+00 -2.8254831614817E-04 -7.9840070009385E-05
   176  1.7500000000000E+00 -1.3170704154190E-04 -3.1996709423404E-05
   177  1.7600000000000E+00 -3.6469746283903E-05 -7.4527488489119E-06
   178  1.7700000000000E+00 -1.0816110316142E-06 -1.6911978834958E-07
   179  1.7800000000000E+00  5.3489829323852E-07  8.0114688062541E-08
   180  1.7900000000000E+00 -2.8038422949685E-07 -4.8830718012407E-08
   181  1.80  0.  0.
   182  1.81  0.  0.
   183  1.82  0.  0.
   184  1.83  0.  0.
   185  1.84  0.  0.
   186  1.85  0.  0.
   187  1.86  0.  0.
   188  1.87  0.  0.
   189  1.88  0.  0.
   190  1.89  0.  0.
   191  1.90  0.  0.
   192  1.91  0.  0.
   193  1.92  0.  0.
   194  1.93  0.  0.
   195  1.94  0.  0.
   196  1.95  0.  0.
   197  1.96  0.  0.
   198  1.97  0.  0.
   199  1.98  0.  0.
   200  1.99  0.  0.
   201  2.00  0.  0.
   202  2.01  0.  0.
   203  2.02  0.  0.
   204  2.03  0.  0.
   205  2.04  0.  0.
   206  2.05  0.  0.
   207  2.06  0.  0.
   208  2.07  0.  0.
   209  2.08  0.  0.
   210  2.09  0.  0.
   211  2.10  0.  0.
   212  2.11  0.  0.
   213  2.12  0.  0.
   214  2.13  0.  0.
   215  2.14  0.  0.
   216  2.15  0.  0.
   217  2.16  0.  0.
   218  2.17  0.  0.
   219  2.18  0.  0.
   220  2.19  0.  0.
   221  2.20  0.  0.
   222  2.21  0.  0.
   223  2.22  0.  0.
   224  2.23  0.  0.
   225  2.24  0.  0.
   226  2.25  0.  0.
   227  2.26  0.  0.
   228  2.27  0.  0.
   229  2.28  0.  0.
   230  2.29  0.  0.
   231  2.30  0.  0.
   232  2.31  0.  0.
   233  2.32  0.  0.
   234  2.33  0.  0.
   235  2.34  0.  0.
   236  2.35  0.  0.
   237  2.36  0.  0.
   238  2.37  0.  0.
   239  2.38  0.  0.
   240  2.39  0.  0.
   241  2.40  0.  0.
   242  2.41  0.  0.
   243  2.42  0.  0.
   244  2.43  0.  0.
   245  2.44  0.  0.
   246  2.45  0.  0.
   247  2.46  0.  0.
   248  2.47  0.  0.
   249  2.48  0.  0.
   250  2.49  0.  0.
   251  2.50  0.  0.
   252  2.51  0.  0.
   253  2.52  0.  0.
   254  2.53  0.  0.
   255  2.54  0.  0.
   256  2.55  0.  0.
   257  2.56  0.  0.
   258  2.57  0.  0.
   259  2.58  0.  0.
   260  2.59  0.  0.
   261  2.60  0.  0.
   262  2.61  0.  0.
   263  2.62  0.  0.
   264  2.63  0.  0.
   265  2.64  0.  0.
   266  2.65  0.  0.
   267  2.66  0.  0.
   268  2.67  0.  0.
   269  2.68  0.  0.
   270  2.69  0.  0.
   271  2.70  0.  0.
   272  2.71  0.  0.
   273  2.72  0.  0.
   274  2.73  0.  0.
   275  2.74  0.  0.
   276  2.75  0.  0.
   277  2.76  0.  0.
   278  2.77  0.  0.
   279  2.78  0.  0.
   280  2.79  0.  0.
   281  2.80  0.  0.
   282  2.81  0.  0.
   283  2.82  0.  0.
   284  2.83  0.  0.
   285  2.84  0.  0.
   286  2.85  0.  0.
   287  2.86  0.  0.
   288  2.87  0.  0.
   289  2.88  0.  0.
   290  2.89  0.  0.
   291  2.90  0.  0.
   292  2.91  0.  0.
   293  2.92  0.  0.
   294  2.93  0.  0.
   295  2.94  0.  0.
   296  2.95  0.  0.
   297  2.96  0.  0.
   298  2.97  0.  0.
   299  2.98  0.  0.
   300  2.99  0.  0.
   301  3.00  0.  0.
   302  3.01  0.  0.
   303  3.02  0.  0.
   304  3.03  0.  0.
   305  3.04  0.  0.
   306  3.05  0.  0.
   307  3.06  0.  0.
   308  3.07  0.  0.
   309  3.08  0.  0.
   310  3.09  0.  0.
   311  3.10  0.  0.
   312  3.11  0.  0.
   313  3.12  0.  0.
   314  3.13  0.  0.
   315  3.14  0.  0.
   316  3.15  0.  0.
   317  3.16  0.  0.
   318  3.17  0.  0.
   319  3.18  0.  0.
   320  3.19  0.  0.
   321  3.20  0.  0.
   322  3.21  0.  0.
   323  3.22  0.  0.
   324  3.23  0.  0.
   325  3.24  0.  0.
   326  3.25  0.  0.
   327  3.26  0.  0.
   328  3.27  0.  0.
   329  3.28  0.  0.
   330  3.29  0.  0.
   331  3.30  0.  0.
   332  3.31  0.  0.
   333  3.32  0.  0.
   334  3.33  0.  0.
   335  3.34  0.  0.
   336  3.35  0.  0.
   337  3.36  0.  0.
   338  3.37  0.  0.
   339  3.38  0.  0.
   340  3.39  0.  0.
   341  3.40  0.  0.
   342  3.41  0.  0.
   343  3.42  0.  0.
   344  3.43  0.  0.
   345  3.44  0.  0.
   346  3.45  0.  0.
   347  3.46  0.  0.
   348  3.47  0.  0.
   349  3.48  0.  0.
   350  3.49  0.  0.
   351  3.50  0.  0.
   352  3.51  0.  0.
   353  3.52  0.  0.
   354  3.53  0.  0.
   355  3.54  0.  0.
   356  3.55  0.  0.
   357  3.56  0.  0.
   358  3.57  0.  0.
   359  3.58  0.  0.
   360  3.59  0.  0.
   361  3.60  0.  0.
   362  3.61  0.  0.
   363  3.62  0.  0.
   364  3.63  0.  0.
   365  3.64  0.  0.
   366  3.65  0.  0.
   367  3.66  0.  0.
   368  3.67  0.  0.
   369  3.68  0.  0.
   370  3.69  0.  0.
   371  3.70  0.  0.
   372  3.71  0.  0.
   373  3.72  0.  0.
   374  3.73  0.  0.
   375  3.74  0.  0.
   376  3.75  0.  0.
   377  3.76  0.  0.
   378  3.77  0.  0.
   379  3.78  0.  0.
   380  3.79  0.  0.
   381  3.80  0.  0.
   382  3.81  0.  0.
   383  3.82  0.  0.
   384  3.83  0.  0.
   385  3.84  0.  0.
   386  3.85  0.  0.
   387  3.86  0.  0.
   388  3.87  0.  0.
   389  3.88  0.  0.
   390  3.89  0.  0.
   391  3.90  0.  0.
   392  3.91  0.  0.
   393  3.92  0.  0.
   394  3.93  0.  0.
   395  3.94  0.  0.
   396  3.95  0.  0.
   397  3.96  0.  0.
   398  3.97  0.  0.
   399  3.98  0.  0.
   400  3.99  0.  0.
   1                        -3.1064760097231E+00 -1.6271672985740E+00
     1  0.0000000000000E+00  1.4471812637140E-11 -9.7818871058752E-11
     2  1.0000000000000E-02  5.3118414712536E-04 -2.6043650853640E-04
     3  2.0000000000000E-02  2.1240191958789E-03 -1.0401359703691E-03
     4  3.0000000000000E-02  4.7763538073850E-03 -2.3342765464978E-03
     5  4.0000000000000E-02  8.4846052055299E-03 -4.1348496281729E-03
     6  5.0000000000000E-02  1.3243763332175E-02 -6.4307013413256E-03
     7  6.0000000000000E-02  1.9047396609206E-02 -9.2075902940413E-03
     8  7.0000000000000E-02  2.5887659252806E-02 -1.2448261211011E-02
     9  8.0000000000000E-02  3.3755300070868E-02 -1.6132534001083E-02
    10  9.0000000000000E-02  4.2639672660556E-02 -2.0237407708887E-02
    11  1.0000000000000E-01  5.2528746910169E-02 -2.4737178710041E-02
    12  1.1000000000000E-01  6.3409121697639E-02 -2.9603572421856E-02
    13  1.2000000000000E-01  7.5266038667361E-02 -3.4805887718557E-02
    14  1.3000000000000E-01  8.8083396957874E-02 -4.0311153162319E-02
    15  1.4000000000000E-01  1.0184376874517E-01 -4.6084294089359E-02
    16  1.5000000000000E-01  1.1652841546033E-01 -5.2088309524419E-02
    17  1.6000000000000E-01  1.3211730453601E-01 -5.8284457837832E-02
    18  1.7000000000000E-01  1.4858912653366E-01 -6.4632450007096E-02
    19  1.8000000000000E-01  1.6592131250318E-01 -7.1090649300304E-02
    20  1.9000000000000E-01  1.8409005142832E-01 -7.7616276161746E-02
    21  2.0000000000000E-01  2.0307030761470E-01 -8.4165617051352E-02
    22  2.1000000000000E-01  2.2283583788368E-01 -9.0694235969081E-02
    23  2.2000000000000E-01  2.4335920844340E-01 -9.7157187383625E-02
    24  2.3000000000000E-01  2.6461181131877E-01 -1.0350922928157E-01
    25  2.4000000000000E-01  2.8656388023524E-01 -1.0970503505894E-01
    26  2.5000000000000E-01  3.0918450586616E-01 -1.1569940299149E-01
    27  2.6000000000000E-01  3.3244165037075E-01 -1.2144746204374E-01
    28  2.7000000000000E-01  3.5630216116955E-01 -1.2690487280870E-01
    29  2.8000000000000E-01  3.8073178392544E-01 -1.3202802241131E-01
    30  2.9000000000000E-01  4.0569517472216E-01 -1.3677421225781E-01
    31  3.0000000000000E-01  4.3115591145767E-01 -1.4110183757073E-01
    32  3.1000000000000E-01  4.5707650449664E-01 -1.4497055771472E-01
    33  3.2000000000000E-01  4.8341840665535E-01 -1.4834145639114E-01
    34  3.3000000000000E-01  5.1014202262173E-01 -1.5117719085917E-01
    35  3.4000000000000E-01  5.3720671794482E-01 -1.5344212942796E-01
    36  3.5000000000000E-01  5.6457082775927E-01 -1.5510247655619E-01
    37  3.6000000000000E-01  5.9219166544309E-01 -1.5612638499381E-01
    38  3.7000000000000E-01  6.2002553143925E-01 -1.5648405450240E-01
    39  3.8000000000000E-01  6.4802772250420E-01 -1.5614781679749E-01
    40  3.9000000000000E-01  6.7615254167826E-01 -1.5509220646553E-01
    41  4.0000000000000E-01  7.0435330930397E-01 -1.5329401771978E-01
    42  4.1000000000000E-01  7.3258237544830E-01 -1.5073234697315E-01
    43  4.2000000000000E-01  7.6079113411286E-01 -1.4738862131968E-01
    44  4.3000000000000E-01  7.8893003964266E-01 -1.4324661313023E-01
    45  4.4000000000000E-01  8.1694862576757E-01 -1.3829244108015E-01
    46  4.5000000000000E-01  8.4479552773164E-01 -1.3251455803733E-01
    47  4.6000000000000E-01  8.7241850798350E-01 -1.2590372634592E-01
    48  4.7000000000000E-01  8.9976448591471E-01 -1.1845298114428E-01
    49  4.8000000000000E-01  9.2677957214342E-01 -1.1015758245397E-01
    50  4.9000000000000E-01  9.5340910784611E-01 -1.0101495686873E-01
    51  5.0000000000000E-01  9.7959770964142E-01 -9.1024629758106E-02
    52  5.1000000000000E-01  1.0052893205257E+00 -8.0188148978115E-02
    53  5.2000000000000E-01  1.0304272673508E+00 -6.8509001151012E-02
    54  5.3000000000000E-01  1.0549543253183E+00 -5.5992521636489E-02
    55  5.4000000000000E-01  1.0788127899466E+00 -4.2645799367155E-02
    56  5.5000000000000E-01  1.1019445569347E+00 -2.8477577761154E-02
    57  5.6000000000000E-01  1.1242912103203E+00 -1.3498152953825E-02
    58  5.7000000000000E-01  1.1457941192841E+00  2.2807293922193E-03
    59  5.8000000000000E-01  1.1663945439110E+00  1.8845977433469E-02
    60  5.9000000000000E-01  1.1860337501646E+00  3.6183255389733E-02
    61  6.0000000000000E-01  1.2046531342744E+00  5.4277083446261E-02
    62  6.1000000000000E-01  1.2221943566713E+00  7.3110934105025E-02
    63  6.2000000000000E-01  1.2385994855356E+00  9.2667323819776E-02
    64  6.3000000000000E-01  1.2538111499504E+00  1.1292789880521E-01
    65  6.4000000000000E-01  1.2677727025680E+00  1.3387351397803E-01
    66  6.5000000000000E-01  1.2804283916166E+00  1.5548430406682E-01
    67  6.6000000000000E-01  1.2917235419830E+00  1.7773974601778E-01
    68  6.7000000000000E-01  1.3016047450153E+00  2.0061871192375E-01
    69  6.8000000000000E-01  1.3100200565942E+00  2.2409951181448E-01
    70  6.9000000000000E-01  1.3169192029236E+00  2.4815992576496E-01
    71  7.0000000000000E-01  1.3222537933908E+00  2.7277722490582E-01
    72  7.1000000000000E-01  1.3259775397497E+00  2.9792818105390E-01
    73  7.2000000000000E-01  1.3280464807756E+00  3.2358906482070E-01
    74  7.3000000000000E-01  1.3284192114462E+00  3.4973563220111E-01
    75  7.4000000000000E-01  1.3270571156025E+00  3.7634309979217E-01
    76  7.5000000000000E-01  1.3239246009517E+00  4.0338610894198E-01
    77  7.6000000000000E-01  1.3189893351813E+00  4.3083867927846E-01
    78  7.7000000000000E-01  1.3122224818701E+00  4.5867415221794E-01
    79  7.8000000000000E-01  1.3035989348011E+00  4.8686512520018E-01
    80  7.9000000000000E-01  1.2930975492061E+00  5.1538337754041E-01
    81  8.0000000000000E-01  1.2807013684102E+00  5.4419978892680E-01
    82  8.1000000000000E-01  1.2663978442825E+00  5.7328425172360E-01
    83  8.2000000000000E-01  1.2501790498558E+00  6.0260557836342E-01
    84  8.3000000000000E-01  1.2320418824381E+00  6.3213140522597E-01
    85  8.4000000000000E-01  1.2119882555131E+00  6.6182809450355E-01
    86  8.5000000000000E-01  1.1900252777133E+00  6.9166063564420E-01
    87  8.6000000000000E-01  1.1661654171459E+00  7.2159254804103E-01
    88  8.7000000000000E-01  1.1404266493625E+00  7.5158578669878E-01
    89  8.8000000000000E-01  1.1128325872906E+00  7.8160065265638E-01
    90  8.9000000000000E-01  1.0834125914787E+00  8.1159570997513E-01
    91  9.0000000000000E-01  1.0522018590638E+00  8.4152771111612E-01
    92  9.1000000000000E-01  1.0192414899326E+00  8.7135153252680E-01
    93  9.2000000000000E-01  9.8457852863246E-01  9.0102012223470E-01
    94  9.3000000000000E-01  9.4826598067937E-01  9.3048446120584E-01
    95  9.4000000000000E-01  9.1036280202292E-01  9.5969354016667E-01
    96  9.5000000000000E-01  8.7093386054849E-01  9.8859435351089E-01
    97  9.6000000000000E-01  8.3004986863425E-01  1.0171319118165E+00
    98  9.7000000000000E-01  7.8778728592865E-01  1.0452492743854E+00
    99  9.8000000000000E-01  7.4422819167482E-01  1.0728876030859E+00
   100  9.9000000000000E-01  6.9946012607958E-01  1.0999862386326E+00
   101  1.0000000000000E+00  6.5357590040680E-01  1.1264828002722E+00
   102  1.0100000000000E+00  6.0667337566488E-01  1.1523133096691E+00
   103  1.0200000000000E+00  5.5885520995710E-01  1.1774123395912E+00
   104  1.0300000000000E+00  5.1022857476784E-01  1.2017131877935E+00
   105  1.0400000000000E+00  4.6090484066824E-01  1.2251480762845E+00
   106  1.0500000000000E+00  4.1099923313781E-01  1.2476483759380E+00
   107  1.0600000000000E+00  3.6063045941467E-01  1.2691448561817E+00
   108  1.0700000000000E+00  3.0992030750260E-01  1.2895679592629E+00
   109  1.0800000000000E+00  2.5899321867854E-01  1.3088480983512E+00
   110  1.0900000000000E+00  2.0797583505539E-01  1.3269159785023E+00
   111  1.1000000000000E+00  1.5699652396292E-01  1.3437029392669E+00
   112  1.1100000000000E+00  1.0618488110994E-01  1.3591413174976E+00
   113  1.1200000000000E+00  5.5671214684057E-02  1.3731648286749E+00
   114  1.1300000000000E+00  5.5860127283423E-03  1.3857089648547E+00
   115  1.1400000000000E+00 -4.3940603694366E-02  1.3967114071260E+00
   116  1.1500000000000E+00 -9.2779438879800E-02  1.4061124502686E+00
   117  1.1600000000000E+00 -1.4080278958990E-01  1.4138554371142E+00
   118  1.1700000000000E+00 -1.8788501794794E-01  1.4198871999435E+00
   119  1.1800000000000E+00 -2.3390312707222E-01  1.4241585061213E+00
   120  1.1900000000000E+00 -2.7873733634589E-01  1.4266245052580E+00
   121  1.2000000000000E+00 -3.2227165266415E-01  1.4272451720676E+00
   122  1.2100000000000E+00 -3.6439442349015E-01  1.4259856619630E+00
   123  1.2200000000000E+00 -4.0499871358711E-01  1.4228156000403E+00
   124  1.2300000000000E+00 -4.4398256617577E-01  1.4177082113877E+00
   125  1.2400000000000E+00 -4.8124935518912E-01  1.4106405315252E+00
   126  1.2500000000000E+00 -5.1670814108147E-01  1.4015937367929E+00
   127  1.2600000000000E+00 -5.5027401362231E-01  1.3905534687028E+00
   128  1.2700000000000E+00 -5.8186841936356E-01  1.3775101481535E+00
   129  1.2800000000000E+00 -6.1141947154159E-01  1.3624592765822E+00
   130  1.2900000000000E+00 -6.3886224022557E-01  1.3454017212170E+00
   131  1.3000000000000E+00 -6.6413902056515E-01  1.3263439815695E+00
   132  1.3100000000000E+00 -6.8719957706473E-01  1.3052984344047E+00
   133  1.3200000000000E+00 -7.0800136189188E-01  1.2822835544969E+00
   134  1.3300000000000E+00 -7.2650970533698E-01  1.2573241086215E+00
   135  1.3400000000000E+00 -7.4269797665763E-01  1.2304513203577E+00
   136  1.3500000000000E+00 -7.5654771367998E-01  1.2017030034514E+00
   137  1.3600000000000E+00 -7.6804871967988E-01  1.1711236616637E+00
   138  1.3700000000000E+00 -7.7719912623410E-01  1.1387645532396E+00
   139  1.3800000000000E+00 -7.8400542091008E-01  1.1046837183443E+00
   140  1.3900000000000E+00 -7.8848243885573E-01  1.0689459680595E+00
   141  1.4000000000000E+00 -7.9065331755192E-01  1.0316228337762E+00
   142  1.4100000000000E+00 -7.9054941420401E-01  9.9279247608963E-01
   143  1.4200000000000E+00 -7.8821018546754E-01  9.5253955257468E-01
   144  1.4300000000000E+00 -7.8368302943090E-01  9.1095504410436E-01
   145  1.4400000000000E+00 -7.7702309000867E-01  8.6813603966674E-01
   146  1.4500000000000E+00 -7.6829302413388E-01  8.2418547992729E-01
   147  1.4600000000000E+00 -7.5756273237513E-01  7.7921186008826E-01
   148  1.4700000000000E+00 -7.4490905383877E-01  7.3332889288851E-01
   149  1.4800000000000E+00 -7.3041542645153E-01  6.8665513288854E-01
   150  1.4900000000000E+00 -7.1417151395026E-01  6.3931356347865E-01
   151  1.5000000000000E+00 -6.9627280112805E-01  5.9143114832910E-01
   152  1.5100000000000E+00 -6.7682015910723E-01  5.4313834928727E-01
   153  1.5200000000000E+00 -6.5591938261676E-01  4.9456861298801E-01
   154  1.5300000000000E+00 -6.3368070145213E-01  4.4585782870227E-01
   155  1.5400000000000E+00 -6.1021826848142E-01  3.9714376018571E-01
   156  1.5500000000000E+00 -5.8564962673896E-01  3.4856545452208E-01
   157  1.5600000000000E+00 -5.6009515830169E-01  3.0026263114798E-01
   158  1.5700000000000E+00 -5.3367751779376E-01  2.5237505444877E-01
   159  1.5800000000000E+00 -5.0652105348591E-01  2.0504189346686E-01
   160  1.5900000000000E+00 -4.7875121906984E-01  1.5840107241800E-01
   161  1.6000000000000E+00 -4.5049397927277E-01  1.1258861581903E-01
   162  1.6100000000000E+00 -4.2187521255250E-01  6.7737992136700E-02
   163  1.6200000000000E+00 -3.9302011416117E-01  2.3979459930511E-02
   164  1.6300000000000E+00 -3.6405260289250E-01 -1.8560579499851E-02
   165  1.6400000000000E+00 -3.3509473484202E-01 -5.9760218921445E-02
   166  1.6500000000000E+00 -3.0626612749047E-01 -9.9502667412517E-02
   167  1.6600000000000E+00 -2.7768339738720E-01 -1.3767685406342E-01
   168  1.6700000000000E+00 -2.4945961465887E-01 -1.7417800920783E-01
   169  1.6800000000000E+00 -2.2170377748479E-01 -2.0890821936613E-01
   170  1.6900000000000E+00 -1.9452030958883E-01 -2.4177695218676E-01
   171  1.7000000000000E+00 -1.6800858367393E-01 -2.7270154782970E-01
   172  1.7100000000000E+00 -1.4226247359442E-01 -3.0160767339005E-01
   173  1.7200000000000E+00 -1.1736993789826E-01 -3.2842973716903E-01
   174  1.7300000000000E+00 -9.3412637200594E-02 -3.5311125980851E-01
   175  1.7400000000000E+00 -7.0465587659078E-02 -3.7560519954285E-01
   176  1.7500000000000E+00 -4.8596852613753E-02 -3.9587422908378E-01