Mg    ONCVPSP-4.0.1  r_core=   1.87401   2.00147
     12.0000     10.0000      210704    zatom,zion,pspd
     8      11   1     4   400     0    pspcod,pspxc,lmax,lloc,mmax,r2well
  3.99000000  0.00000000  0.00000000    rchrg fchrg qchrg
     2     2     0     0     0    nproj
     1     1           extension_switch
   0                         5.9262813797894E+00 -1.4160751332568E+00
     1  0.0000000000000E+00 -1.3188283798371E-10  1.5139545173071E-09
     2  1.0000000000000E-02  9.9026291304651E-02 -1.0700390847076E-01
     3  2.0000000000000E-02  1.9773338414701E-01 -2.1310261542295E-01
     4  3.0000000000000E-02  2.9580339169928E-01 -3.1739817874282E-01
     5  4.0000000000000E-02  3.9292104440819E-01 -4.1900711888021E-01
     6  5.0000000000000E-02  4.8877498367966E-01 -5.1706750989921E-01
     7  6.0000000000000E-02  5.8305903771429E-01 -6.1074590332444E-01
     8  7.0000000000000E-02  6.7547347369966E-01 -6.9924403082958E-01
     9  8.0000000000000E-02  7.6572622069720E-01 -7.8180523332896E-01
    10  9.0000000000000E-02  8.5353405772431E-01 -8.5772056590896E-01
    11  1.0000000000000E-01  9.3862376172510E-01 -9.2633453026315E-01
    12  1.1000000000000E-01  1.0207332103433E+00 -9.8705038886164E-01
    13  1.2000000000000E-01  1.0996124346584E+00 -1.0393350179746E+00
    14  1.3000000000000E-01  1.1750246173179E+00 -1.0827232598676E+00
    15  1.4000000000000E-01  1.2467470317906E+00 -1.1168217379727E+00
    16  1.5000000000000E-01  1.3145719187821E+00 -1.1413121025949E+00
    17  1.6000000000000E-01  1.3783072961825E+00 -1.1559536787183E+00
    18  1.7000000000000E-01  1.4377776992631E+00 -1.1605854917026E+00
    19  1.8000000000000E-01  1.4928248481977E+00 -1.1551276510928E+00
    20  1.9000000000000E-01  1.5433082403485E+00 -1.1395820773697E+00
    21  2.0000000000000E-01  1.5891056651331E+00 -1.1140325612227E+00
    22  2.1000000000000E-01  1.6301136396649E+00 -1.0786441498078E+00
    23  2.2000000000000E-01  1.6662477637347E+00 -1.0336618594244E+00
    24  2.3000000000000E-01  1.6974429930774E+00 -9.7940871908702E-01
    25  2.4000000000000E-01  1.7236538302375E+00 -9.1628315454912E-01
    26  2.5000000000000E-01  1.7448544327052E+00 -8.4475572742383E-01
    27  2.6000000000000E-01  1.7610386383461E+00 -7.6536524912173E-01
    28  2.7000000000000E-01  1.7722199084825E+00 -6.7871429435099E-01
    29  2.8000000000000E-01  1.7784311893017E+00 -5.8546414387582E-01
    30  2.9000000000000E-01  1.7797246925695E+00 -4.8632919108070E-01
    31  3.0000000000000E-01  1.7761715969023E+00 -3.8207085160642E-01
    32  3.1000000000000E-01  1.7678616711079E+00 -2.7349101989163E-01
    33  3.2000000000000E-01  1.7549028213359E+00 -1.6142512083682E-01
    34  3.3000000000000E-01  1.7374205639800E+00 -4.6734808988766E-02
    35  3.4000000000000E-01  1.7155574264494E+00  6.9699628403497E-02
    36  3.5000000000000E-01  1.6894722780732E+00  1.8698710440760E-01
    37  3.6000000000000E-01  1.6593395935134E+00  3.0423373801459E-01
    38  3.7000000000000E-01  1.6253486511491E+00  4.2055096570157E-01
    39  3.8000000000000E-01  1.5877026689424E+00  5.3506368947985E-01
    40  3.9000000000000E-01  1.5466178803217E+00  6.4691838944102E-01
    41  4.0000000000000E-01  1.5023225526001E+00  7.5529112663145E-01
    42  4.1000000000000E-01  1.4550559504127E+00  8.5939536025062E-01
    43  4.2000000000000E-01  1.4050672465744E+00  9.5848950169159E-01
    44  4.3000000000000E-01  1.3526143826667E+00  1.0518841268300E+00
    45  4.4000000000000E-01  1.2979628815240E+00  1.1389487672261E+00
    46  4.5000000000000E-01  1.2413846136373E+00  1.2191182005405E+00
    47  4.6000000000000E-01  1.1831565193098E+00  1.2918981604765E+00
    48  4.7000000000000E-01  1.1235592881923E+00  1.3568703869515E+00
    49  4.8000000000000E-01  1.0628759976016E+00  1.4136969379660E+00
    50  4.9000000000000E-01  1.0013907107784E+00  1.4621236857783E+00
    51  5.0000000000000E-01  9.3938703598165E-01  1.5019829214937E+00
    52  5.1000000000000E-01  8.7714664703905E-01  1.5331949940399E+00
    53  5.2000000000000E-01  8.1494776568929E-01  1.5557689117099E+00
    54  5.3000000000000E-01  7.5306360575670E-01  1.5698018369992E+00
    55  5.4000000000000E-01  6.9176077889956E-01  1.5754774083307E+00
    56  5.5000000000000E-01  6.3129766137228E-01  1.5730628254388E+00
    57  5.6000000000000E-01  5.7192272094019E-01  1.5629046386500E+00
    58  5.7000000000000E-01  5.1387280278848E-01  1.5454231860338E+00
    59  5.8000000000000E-01  4.5737137297595E-01  1.5211056263902E+00
    60  5.9000000000000E-01  4.0262671770235E-01  1.4904975202608E+00
    61  6.0000000000000E-01  3.4983009638859E-01  1.4541929155780E+00
    62  6.1000000000000E-01  2.9915384631408E-01  1.4128228991842E+00
    63  6.2000000000000E-01  2.5074943631716E-01  1.3670425802203E+00
    64  6.3000000000000E-01  2.0474546684664E-01  1.3175164762957E+00
    65  6.4000000000000E-01  1.6124561345490E-01  1.2649022783639E+00
    66  6.5000000000000E-01  1.2032651064981E-01  1.2098329753206E+00
    67  6.6000000000000E-01  8.2035572874283E-02  1.1528973244947E+00
    68  6.7000000000000E-01  4.6388749260519E-02  1.0946186593709E+00
    69  6.8000000000000E-01  1.3368208592675E-02  1.0354320305841E+00
    70  6.9000000000000E-01 -1.7080047925294E-02  9.7565968619995E-01
    71  7.0000000000000E-01 -4.5046924801800E-02  9.1549176279705E-01
    72  7.1000000000000E-01 -7.0642844077103E-02  8.5504015705081E-01
    73  7.2000000000000E-01 -9.3978463077891E-02  7.9440885646501E-01
    74  7.3000000000000E-01 -1.1516266507679E-01  7.3370079636276E-01
    75  7.4000000000000E-01 -1.3430238274790E-01  6.7301779119623E-01
    76  7.5000000000000E-01 -1.5150243624072E-01  6.1246047135999E-01
    77  7.6000000000000E-01 -1.6686538483318E-01  5.5212822628448E-01
    78  7.7000000000000E-01 -1.8049139196152E-01  4.9211915154640E-01
    79  7.8000000000000E-01 -1.9247810325690E-01  4.3252999858487E-01
    80  7.9000000000000E-01 -2.0292053725009E-01  3.7345612566149E-01
    81  8.0000000000000E-01 -2.1191098845711E-01  3.1499144862457E-01
    82  8.1000000000000E-01 -2.1953894253037E-01  2.5722839030546E-01
    83  8.2000000000000E-01 -2.2589100317902E-01  2.0025782741962E-01
    84  8.3000000000000E-01 -2.3105083061022E-01  1.4416903371975E-01
    85  8.4000000000000E-01 -2.3509909119079E-01  8.9049618491903E-02
    86  8.5000000000000E-01 -2.3811341806337E-01  3.4985459405828E-02
    87  8.6000000000000E-01 -2.4016838225671E-01 -1.7939370181608E-02
    88  8.7000000000000E-01 -2.4133547565807E-01 -6.9642688965555E-02
    89  8.8000000000000E-01 -2.4168310030039E-01 -1.2004428343629E-01
    90  8.9000000000000E-01 -2.4127657304313E-01 -1.6906602172505E-01
    91  9.0000000000000E-01 -2.4017813514848E-01 -2.1663195225154E-01
    92  9.1000000000000E-01 -2.3844697359502E-01 -2.6266842551471E-01
    93  9.2000000000000E-01 -2.3613925049040E-01 -3.0710422175685E-01
    94  9.3000000000000E-01 -2.3330814134066E-01 -3.4987069063894E-01
    95  9.4000000000000E-01 -2.3000388150781E-01 -3.9090190133647E-01
    96  9.5000000000000E-01 -2.2627382054773E-01 -4.3013480338129E-01
    97  9.6000000000000E-01 -2.2216248397834E-01 -4.6750939772239E-01
    98  9.7000000000000E-01 -2.1771164207075E-01 -5.0296891766582E-01
    99  9.8000000000000E-01 -2.1296038515223E-01 -5.3646001867402E-01
   100  9.9000000000000E-01 -2.0794520495573E-01 -5.6793297619881E-01
   101  1.0000000000000E+00 -2.0270008145534E-01 -5.9734189006696E-01
   102  1.0100000000000E+00 -1.9725657466116E-01 -6.2464489405009E-01
   103  1.0200000000000E+00 -1.9164392075931E-01 -6.4980436861540E-01
   104  1.0300000000000E+00 -1.8588913202697E-01 -6.7278715502497E-01
   105  1.0400000000000E+00 -1.8001709987281E-01 -6.9356476834893E-01
   106  1.0500000000000E+00 -1.7405070038992E-01 -7.1211360708540E-01
   107  1.0600000000000E+00 -1.6801090176279E-01 -7.2841515668549E-01
   108  1.0700000000000E+00 -1.6191687289883E-01 -7.4245618436954E-01
   109  1.0800000000000E+00 -1.5578609262865E-01 -7.5422892235594E-01
   110  1.0900000000000E+00 -1.4963445886349E-01 -7.6373123682754E-01
   111  1.1000000000000E+00 -1.4347639708271E-01 -7.7096677978329E-01
   112  1.1100000000000E+00 -1.3732496757927E-01 -7.7594512122389E-01
   113  1.1200000000000E+00 -1.3119197089908E-01 -7.7868185911983E-01
   114  1.1300000000000E+00 -1.2508805096245E-01 -7.7919870492567E-01
   115  1.1400000000000E+00 -1.1902279539386E-01 -7.7752354263445E-01
   116  1.1500000000000E+00 -1.1300483263409E-01 -7.7369045968020E-01
   117  1.1600000000000E+00 -1.0704192546524E-01 -7.6773974838341E-01
   118  1.1700000000000E+00 -1.0114106063131E-01 -7.5971787700602E-01
   119  1.1800000000000E+00 -9.5308534299934E-02 -7.4967742993850E-01
   120  1.1900000000000E+00 -8.9550033165532E-02 -7.3767701695290E-01
   121  1.2000000000000E+00 -8.3870711059330E-02 -7.2378115194740E-01
   122  1.2100000000000E+00 -7.8275260985459E-02 -7.0806010202405E-01
   123  1.2200000000000E+00 -7.2767982561778E-02 -6.9058970820182E-01
   124  1.2300000000000E+00 -6.7352844894741E-02 -6.7145117946421E-01
   125  1.2400000000000E+00 -6.2033544966334E-02 -6.5073086222138E-01
   126  1.2500000000000E+00 -5.6813561651828E-02 -6.2851998758407E-01
   127  1.2600000000000E+00 -5.1696205522770E-02 -6.0491439911892E-01
   128  1.2700000000000E+00 -4.6684664615527E-02 -5.8001426394602E-01
   129  1.2800000000000E+00 -4.1782046361875E-02 -5.5392377014424E-01
   130  1.2900000000000E+00 -3.6991415889263E-02 -5.2675081348497E-01
   131  1.3000000000000E+00 -3.2315830888509E-02 -4.9860667639404E-01
   132  1.3100000000000E+00 -2.7758373238766E-02 -4.6960570191945E-01
   133  1.3200000000000E+00 -2.3322177548695E-02 -4.3986496516605E-01
   134  1.3300000000000E+00 -1.9010456731204E-02 -4.0950394424195E-01
   135  1.3400000000000E+00 -1.4826524686279E-02 -3.7864419231408E-01
   136  1.3500000000000E+00 -1.0773816090316E-02 -3.4740901164772E-01
   137  1.3600000000000E+00 -6.8559032247034E-03 -3.1592312984114E-01
   138  1.3700000000000E+00 -3.0765096844082E-03 -2.8431237758153E-01
   139  1.3800000000000E+00  5.6047929087568E-04 -2.5270336629343E-01
   140  1.3900000000000E+00  4.0510102199972E-03 -2.2122316307015E-01
   141  1.4000000000000E+00  7.3908589898207E-03 -1.8999895916279E-01
   142  1.4100000000000E+00  1.0575633255827E-02 -1.5915772718478E-01
   143  1.4200000000000E+00  1.3600780321939E-02 -1.2882586114406E-01
   144  1.4300000000000E+00  1.6461601301342E-02 -9.9128792278022E-02
   145  1.4400000000000E+00  1.9153272441700E-02 -7.0190572783974E-02
   146  1.4500000000000E+00  2.1670874573381E-02 -4.2133418710138E-02
   147  1.4600000000000E+00  2.4009431675490E-02 -1.5077202765416E-02
   148  1.4700000000000E+00  2.6163959567353E-02  1.0861112495982E-02
   149  1.4800000000000E+00  2.8129525677384E-02  3.5568110388402E-02
   150  1.4900000000000E+00  2.9901320752541E-02  5.8934633410004E-02
   151  1.5000000000000E+00  3.1474743195977E-02  8.0856581552043E-02
   152  1.5100000000000E+00  3.2845496476861E-02  1.0123580108385E-01
   153  1.5200000000000E+00  3.4009699728488E-02  1.1998106664416E-01
   154  1.5300000000000E+00  3.4964011226049E-02  1.3700915596538E-01
   155  1.5400000000000E+00  3.5705763921676E-02  1.5224601225385E-01
   156  1.5500000000000E+00  3.6233111610662E-02  1.6562798413624E-01
   157  1.5600000000000E+00  3.6545183605228E-02  1.7710312711508E-01
   158  1.5700000000000E+00  3.6642245037698E-02  1.8663254396363E-01
   159  1.5800000000000E+00  3.6525859100258E-02  1.9419173440025E-01
   160  1.5900000000000E+00  3.6199046701091E-02  1.9977191711499E-01
   161  1.6000000000000E+00  3.5666438216082E-02  2.0338128011155E-01
   162  1.6100000000000E+00  3.4934411267874E-02  2.0504610860967E-01
   163  1.6200000000000E+00  3.4011207864299E-02  2.0481173423091E-01
   164  1.6300000000000E+00  3.2907023797493E-02  2.0274324506785E-01
   165  1.6400000000000E+00  3.1634063043295E-02  1.9892589437779E-01
   166  1.6500000000000E+00  3.0206550040516E-02  1.9346514635248E-01
   167  1.6600000000000E+00  2.8640693266829E-02  1.8648630153372E-01
   168  1.6700000000000E+00  2.6954594487037E-02  1.7813365221569E-01
   169  1.6800000000000E+00  2.5168099440852E-02  1.6856912972693E-01
   170  1.6900000000000E+00  2.3302587419470E-02  1.5797041964777E-01
   171  1.7000000000000E+00  2.1380701411399E-02  1.4652855691053E-01
   172  1.7100000000000E+00  1.9426013564881E-02  1.3444495452839E-01
   173  1.7200000000000E+00  1.7462651894972E-02  1.2192808368225E-01
   174  1.7300000000000E+00  1.5514864274508E-02  1.0918960216088E-01
   175  1.7400000000000E+00  1.3606561524626E-02  9.6440284987290E-02
   176  1.7500000000000E+00  1.1760839937768E-02  8.3885762913625E-02
   177  1.7600000000000E+00  9.9995039164842E-03  7.1722231812107E-02
   178  1.7700000000000E+00  8.3425768164366E-03  6.0132097527512E-02
   179  1.7800000000000E+00  6.8079244210837E-03  4.9280442274271E-02
   180  1.7900000000000E+00  5.4116247468903E-03  3.9316616228096E-02
   181  1.8000000000000E+00  4.1667064553620E-03  3.0364817776863E-02
   182  1.8100000000000E+00  3.0816815395113E-03  2.2513521611085E-02
   183  1.8200000000000E+00  2.1619834960941E-03  1.5824877156675E-02
   184  1.8300000000000E+00  1.4097865957616E-03  1.0333147612057E-02
   185  1.8400000000000E+00  8.2406322023894E-04  6.0449758428820E-03
   186  1.8500000000000E+00  4.0081032625555E-04  2.9410372234412E-03
   187  1.8600000000000E+00  1.3187470080139E-04  9.6756948444664E-04
   188  1.8700000000000E+00  1.4685921574003E-05  1.0795987874526E-04
   189  1.8800000000000E+00 -3.4939784074900E-06 -2.5450989711661E-05
   190  1.8900000000000E+00  1.1930770109411E-06  8.7136407286253E-06
   191  1.90 -0. -0.
   192  1.91 -0. -0.
   193  1.92  0.  0.
   194  1.93  0.  0.
   195  1.94  0.  0.
   196  1.95  0.  0.
   197  1.96  0.  0.
   198  1.97  0.  0.
   199  1.98  0.  0.
   200  1.99  0.  0.
   201  2.00  0.  0.
   202  2.01  0.  0.
   203  2.02  0.  0.
   204  2.03  0.  0.
   205  2.04  0.  0.
   206  2.05  0.  0.
   207  2.06  0.  0.
   208  2.07  0.  0.
   209  2.08  0.  0.
   210  2.09  0.  0.
   211  2.10  0.  0.
   212  2.11  0.  0.
   213  2.12  0.  0.
   214  2.13  0.  0.
   215  2.14  0.  0.
   216  2.15  0.  0.
   217  2.16  0.  0.
   218  2.17  0.  0.
   219  2.18  0.  0.
   220  2.19  0.  0.
   221  2.20  0.  0.
   222  2.21  0.  0.
   223  2.22  0.  0.
   224  2.23  0.  0.
   225  2.24  0.  0.
   226  2.25  0.  0.
   227  2.26  0.  0.
   228  2.27  0.  0.
   229  2.28  0.  0.
   230  2.29  0.  0.
   231  2.30  0.  0.
   232  2.31  0.  0.
   233  2.32  0.  0.
   234  2.33  0.  0.
   235  2.34  0.  0.
   236  2.35  0.  0.
   237  2.36  0.  0.
   238  2.37  0.  0.
   239  2.38  0.  0.
   240  2.39  0.  0.
   241  2.40  0.  0.
   242  2.41  0.  0.
   243  2.42  0.  0.
   244  2.43  0.  0.
   245  2.44  0.  0.
   246  2.45  0.  0.
   247  2.46  0.  0.
   248  2.47  0.  0.
   249  2.48  0.  0.
   250  2.49  0.  0.
   251  2.50  0.  0.
   252  2.51  0.  0.
   253  2.52  0.  0.
   254  2.53  0.  0.
   255  2.54  0.  0.
   256  2.55  0.  0.
   257  2.56  0.  0.
   258  2.57  0.  0.
   259  2.58  0.  0.
   260  2.59  0.  0.
   261  2.60  0.  0.
   262  2.61  0.  0.
   263  2.62  0.  0.
   264  2.63  0.  0.
   265  2.64  0.  0.
   266  2.65  0.  0.
   267  2.66  0.  0.
   268  2.67  0.  0.
   269  2.68  0.  0.
   270  2.69  0.  0.
   271  2.70  0.  0.
   272  2.71  0.  0.
   273  2.72  0.  0.
   274  2.73  0.  0.
   275  2.74  0.  0.
   276  2.75  0.  0.
   277  2.76  0.  0.
   278  2.77  0.  0.
   279  2.78  0.  0.
   280  2.79  0.  0.
   281  2.80  0.  0.
   282  2.81  0.  0.
   283  2.82  0.  0.
   284  2.83  0.  0.
   285  2.84  0.  0.
   286  2.85  0.  0.
   287  2.86  0.  0.
   288  2.87  0.  0.
   289  2.88  0.  0.
   290  2.89  0.  0.
   291  2.90  0.  0.
   292  2.91  0.  0.
   293  2.92  0.  0.
   294  2.93  0.  0.
   295  2.94  0.  0.
   296  2.95  0.  0.
   297  2.96  0.  0.
   298  2.97  0.  0.
   299  2.98  0.  0.
   300  2.99  0.  0.
   301  3.00  0.  0.
   302  3.01  0.  0.
   303  3.02  0.  0.
   304  3.03  0.  0.
   305  3.04  0.  0.
   306  3.05  0.  0.
   307  3.06  0.  0.
   308  3.07  0.  0.
   309  3.08  0.  0.
   310  3.09  0.  0.
   311  3.10  0.  0.
   312  3.11  0.  0.
   313  3.12  0.  0.
   314  3.13  0.  0.
   315  3.14  0.  0.
   316  3.15  0.  0.
   317  3.16  0.  0.
   318  3.17  0.  0.
   319  3.18  0.  0.
   320  3.19  0.  0.
   321  3.20  0.  0.
   322  3.21  0.  0.
   323  3.22  0.  0.
   324  3.23  0.  0.
   325  3.24  0.  0.
   326  3.25  0.  0.
   327  3.26  0.  0.
   328  3.27  0.  0.
   329  3.28  0.  0.
   330  3.29  0.  0.
   331  3.30  0.  0.
   332  3.31  0.  0.
   333  3.32  0.  0.
   334  3.33  0.  0.
   335  3.34  0.  0.
   336  3.35  0.  0.
   337  3.36  0.  0.
   338  3.37  0.  0.
   339  3.38  0.  0.
   340  3.39  0.  0.
   341  3.40  0.  0.
   342  3.41  0.  0.
   343  3.42  0.  0.
   344  3.43  0.  0.
   345  3.44  0.  0.
   346  3.45  0.  0.
   347  3.46  0.  0.
   348  3.47  0.  0.
   349  3.48  0.  0.
   350  3.49  0.  0.
   351  3.50  0.  0.
   352  3.51  0.  0.
   353  3.52  0.  0.
   354  3.53  0.  0.
   355  3.54  0.  0.
   356  3.55  0.  0.
   357  3.56  0.  0.
   358  3.57  0.  0.
   359  3.58  0.  0.
   360  3.59  0.  0.
   361  3.60  0.  0.
   362  3.61  0.  0.
   363  3.62  0.  0.
   364  3.63  0.  0.
   365  3.64  0.  0.
   366  3.65  0.  0.
   367  3.66  0.  0.
   368  3.67  0.  0.
   369  3.68  0.  0.
   370  3.69  0.  0.
   371  3.70  0.  0.
   372  3.71  0.  0.
   373  3.72  0.  0.
   374  3.73  0.  0.
   375  3.74  0.  0.
   376  3.75  0.  0.
   377  3.76  0.  0.
   378  3.77  0.  0.
   379  3.78  0.  0.
   380  3.79  0.  0.
   381  3.80  0.  0.
   382  3.81  0.  0.
   383  3.82  0.  0.
   384  3.83  0.  0.
   385  3.84  0.  0.
   386  3.85  0.  0.
   387  3.86  0.  0.
   388  3.87  0.  0.
   389  3.88  0.  0.
   390  3.89  0.  0.
   391  3.90  0.  0.
   392  3.91  0.  0.
   393  3.92  0.  0.
   394  3.93  0.  0.
   395  3.94  0.  0.
   396  3.95  0.  0.
   397  3.96  0.  0.
   398  3.97  0.  0.
   399  3.98  0.  0.
   400  3.99  0.  0.
   1                        -3.9808948670101E+00 -2.2056925618317E+00
     1  0.0000000000000E+00 -3.2346660072680E-09  2.1934958857953E-09
     2  1.0000000000000E-02 -2.0888507414394E-03 -5.5920725059442E-06
     3  2.0000000000000E-02 -8.3331482462374E-03 -2.8435526669124E-05
     4  3.0000000000000E-02 -1.8666327031067E-02 -8.6634881894561E-05
     5  4.0000000000000E-02 -3.2978105137508E-02 -2.1004157313161E-04
     6  5.0000000000000E-02 -5.1115468838310E-02 -4.3977400663183E-04
     7  6.0000000000000E-02 -7.2884039151669E-02 -8.2755399271538E-04
     8  7.0000000000000E-02 -9.8049808215250E-02 -1.4348677965838E-03
     9  8.0000000000000E-02 -1.2634123033699E-01 -2.3319622417133E-03
    10  9.0000000000000E-02 -1.5745164943717E-01 -3.5966883756673E-03
    11  1.0000000000000E-01 -1.9104204165273E-01 -5.3132071413611E-03
    12  1.1000000000000E-01 -2.2674404911593E-01 -7.5705732661333E-03
    13  1.2000000000000E-01 -2.6416327836920E-01 -1.0461215165919E-02
    14  1.3000000000000E-01 -3.0288283455815E-01 -1.4079330044251E-02
    15  1.4000000000000E-01 -3.4246706047588E-01 -1.8519214529668E-02
    16  1.5000000000000E-01 -3.8246544773079E-01 -2.3873552126696E-02
    17  1.6000000000000E-01 -4.2241668579388E-01 -3.0231679443735E-02
    18  1.7000000000000E-01 -4.6185281346125E-01 -3.7677853597488E-02
    19  1.8000000000000E-01 -5.0030343635584E-01 -4.6289543372207E-02
    20  1.9000000000000E-01 -5.3729997349426E-01 -5.6135766629867E-02
    21  2.0000000000000E-01 -5.7237989566819E-01 -6.7275496124551E-02
    22  2.1000000000000E-01 -6.0509091843397E-01 -7.9756155272955E-02
    23  2.2000000000000E-01 -6.3499511287115E-01 -9.3612224578843E-02
    24  2.3000000000000E-01 -6.6167289795566E-01 -1.0886397831011E-01
    25  2.4000000000000E-01 -6.8472687939045E-01 -1.2551636969383E-01
    26  2.5000000000000E-01 -7.0378550103778E-01 -1.4355808134005E-01
    27  2.6000000000000E-01 -7.1850647669028E-01 -1.6296075584480E-01
    28  2.7000000000000E-01 -7.2857997179044E-01 -1.8367841957434E-01
    29  2.8000000000000E-01 -7.3373150684246E-01 -2.0564711051517E-01
    30  2.9000000000000E-01 -7.3372455663967E-01 -2.2878471880999E-01
    31  3.0000000000000E-01 -7.2836282203412E-01 -2.5299104620983E-01
    32  3.1000000000000E-01 -7.1749215378011E-01 -2.7814808818268E-01
    33  3.2000000000000E-01 -7.0100211096755E-01 -3.0412053985281E-01
    34  3.3000000000000E-01 -6.7882713969817E-01 -3.3075652432886E-01
    35  3.4000000000000E-01 -6.5094736092199E-01 -3.5788853933897E-01
    36  3.5000000000000E-01 -6.1738895971548E-01 -3.8533461545405E-01
    37  3.6000000000000E-01 -5.7822417171900E-01 -4.1289967657188E-01
    38  3.7000000000000E-01 -5.3357086592992E-01 -4.4037709078153E-01
    39  3.8000000000000E-01 -4.8359172654199E-01 -4.6755039725487E-01
    40  3.9000000000000E-01 -4.2849304000063E-01 -4.9419519244414E-01
    41  4.0000000000000E-01 -3.6852309688053E-01 -5.2008115662587E-01
    42  4.1000000000000E-01 -3.0397022155752E-01 -5.4497419974338E-01
    43  4.2000000000000E-01 -2.3516044591364E-01 -5.6863870358432E-01
    44  4.3000000000000E-01 -1.6245484645635E-01 -5.9083983560490E-01
    45  4.4000000000000E-01 -8.6246567224247E-02 -6.1134590819626E-01
    46  4.5000000000000E-01 -6.9575536679187E-03 -6.2993075589624E-01
    47  4.6000000000000E-01  7.4964974686299E-02 -6.4637610199480E-01
    48  4.7000000000000E-01  1.5905228258196E-01 -6.6047388517529E-01
    49  4.8000000000000E-01  2.4481807601776E-01 -6.7202851628471E-01
    50  4.9000000000000E-01  3.3176262359616E-01 -6.8085903504169E-01
    51  5.0000000000000E-01  4.1937700632369E-01 -6.8680113647459E-01
    52  5.1000000000000E-01  5.0714745859973E-01 -6.8970903713672E-01
    53  5.2000000000000E-01  5.9455976207445E-01 -6.8945715166976E-01
    54  5.3000000000000E-01  6.8110365330442E-01 -6.8594155107905E-01
    55  5.4000000000000E-01  7.6627720569194E-01 -6.7908117513840E-01
    56  5.5000000000000E-01  8.4959114606662E-01 -6.6881877265311E-01
    57  5.6000000000000E-01  9.3057306645533E-01 -6.5512154486614E-01
    58  5.7000000000000E-01  1.0087714920894E+00 -6.3798146908501E-01
    59  5.8000000000000E-01  1.0837597675122E+00 -6.1741528162185E-01
    60  5.9000000000000E-01  1.1551397237714E+00 -5.9346410136138E-01
    61  6.0000000000000E-01  1.2225450910973E+00 -5.6619267768613E-01
    62  6.1000000000000E-01  1.2856446231771E+00 -5.3568824907569E-01
    63  6.2000000000000E-01  1.3441449011175E+00 -5.0205900143979E-01
    64  6.3000000000000E-01  1.3977927874292E+00 -4.6543211812166E-01
    65  6.4000000000000E-01  1.4463775028616E+00 -4.2595141649847E-01
    66  6.5000000000000E-01  1.4897323016263E+00 -3.8377456918684E-01
    67  6.6000000000000E-01  1.5277357234772E+00 -3.3906991101083E-01
    68  6.7000000000000E-01  1.5603124042197E+00 -2.9201283608417E-01
    69  6.8000000000000E-01  1.5874334295817E+00 -2.4278179252868E-01
    70  6.9000000000000E-01  1.6091162199306E+00 -1.9155388602841E-01
    71  7.0000000000000E-01  1.6254227447739E+00 -1.3850077548257E-01
    72  7.1000000000000E-01  1.6364450241830E+00 -8.3791763794810E-02
    73  7.2000000000000E-01  1.6422904033829E+00 -2.7599442059361E-02
    74  7.3000000000000E-01  1.6430794768709E+00  2.9900280180575E-02
    75  7.4000000000000E-01  1.6389453084171E+00  8.8528774820499E-02
    76  7.5000000000000E-01  1.6300326483203E+00  1.4810528128916E-01
    77  7.6000000000000E-01  1.6164971489179E+00  2.0844747795321E-01
    78  7.7000000000000E-01  1.5985045798278E+00  2.6937203841277E-01
    79  7.8000000000000E-01  1.5762300441896E+00  3.3069517236423E-01
    80  7.9000000000000E-01  1.5498571971050E+00  3.9223315086725E-01
    81  8.0000000000000E-01  1.5195774674321E+00  4.5380281601442E-01
    82  8.1000000000000E-01  1.4855892839996E+00  5.1522207511093E-01
    83  8.2000000000000E-01  1.4480973072591E+00  5.7631037958735E-01
    84  8.3000000000000E-01  1.4073116673647E+00  6.3688918898956E-01
    85  8.4000000000000E-01  1.3634472095957E+00  6.9678242043826E-01
    86  8.5000000000000E-01  1.3167227480169E+00  7.5581688402989E-01
    87  8.6000000000000E-01  1.2673603281520E+00  8.1382270456890E-01
    88  8.7000000000000E-01  1.2155845002326E+00  8.7063373124809E-01
    89  8.8000000000000E-01  1.1616216014876E+00  9.2608793237408E-01
    90  8.9000000000000E-01  1.1056990524329E+00  9.8002778181045E-01
    91  9.0000000000000E-01  1.0480446634181E+00  1.0323006309504E+00
    92  9.1000000000000E-01  9.8888595536228E-01  1.0827590713844E+00
    93  9.2000000000000E-01  9.2844949401468E-01  1.1312612864536E+00
    94  9.3000000000000E-01  8.6696023899083E-01  1.1776713927329E+00
    95  9.4000000000000E-01  8.0464090825278E-01  1.2218597714395E+00
    96  9.5000000000000E-01  7.4171135887391E-01  1.2637033899084E+00
    97  9.6000000000000E-01  6.7838798490499E-01  1.3030861130626E+00
    98  9.7000000000000E-01  6.1488313320507E-01  1.3398990047198E+00
    99  9.8000000000000E-01  5.5140453810555E-01  1.3740406183674E+00
   100  9.9000000000000E-01  4.8815477582882E-01  1.4054172769389E+00
   101  1.0000000000000E+00  4.2533073959639E-01  1.4339433409146E+00
   102  1.0100000000000E+00  3.6312313641176E-01  1.4595414639561E+00
   103  1.0200000000000E+00  3.0171600652111E-01  1.4821428350795E+00
   104  1.0300000000000E+00  2.4128626660209E-01  1.5016874062750E+00
   105  1.0400000000000E+00  1.8200327774598E-01  1.5181241042905E+00
   106  1.0500000000000E+00  1.2402843933283E-01  1.5314110252129E+00
   107  1.0600000000000E+00  6.7514809909067E-02  1.5415156103378E+00
   108  1.0700000000000E+00  1.2606756191464E-02  1.5484148017564E+00
   109  1.0800000000000E+00 -4.0560368683723E-02  1.5520951759883E+00
   110  1.0900000000000E+00 -9.1860516555377E-02  1.5525530539775E+00
   111  1.1000000000000E+00 -1.4117720419330E-01  1.5497945857139E+00
   112  1.1100000000000E+00 -1.8840374076762E-01  1.5438358077798E+00
   113  1.1200000000000E+00 -2.3344342183965E-01  1.5347026721297E+00
   114  1.1300000000000E+00 -2.7620968894875E-01  1.5224310444885E+00
   115  1.1400000000000E+00 -3.1662625395429E-01  1.5070666708320E+00
   116  1.1500000000000E+00 -3.5462718739069E-01  1.4886651105297E+00
   117  1.1600000000000E+00 -3.9015697020841E-01  1.4672916348692E+00
   118  1.1700000000000E+00 -4.2317050840200E-01  1.4430210898389E+00
   119  1.1800000000000E+00 -4.5363311016985E-01  1.4159377222338E+00
   120  1.1900000000000E+00 -4.8152042540377E-01  1.3861349683426E+00
   121  1.2000000000000E+00 -5.0681834747304E-01  1.3537152046987E+00
   122  1.2100000000000E+00 -5.2952287744154E-01  1.3187894606022E+00
   123  1.2200000000000E+00 -5.4963995103785E-01  1.2814770923624E+00
   124  1.2300000000000E+00 -5.6718522888587E-01  1.2419054194600E+00
   125  1.2400000000000E+00 -5.8218385069193E-01  1.2002093230774E+00
   126  1.2500000000000E+00 -5.9467015427563E-01  1.1565308077027E+00
   127  1.2600000000000E+00 -6.0468736052105E-01  1.1110185267643E+00
   128  1.2700000000000E+00 -6.1228722550952E-01  1.0638272735020E+00
   129  1.2800000000000E+00 -6.1752966127694E-01  1.0151174385251E+00
   130  1.2900000000000E+00 -6.2048232681112E-01  9.6505443574091E-01
   131  1.3000000000000E+00 -6.2122019106780E-01  9.1380809855797E-01
   132  1.3100000000000E+00 -6.1982506993852E-01  8.6155204848422E-01
   133  1.3200000000000E+00 -6.1638513924402E-01  8.0846303843115E-01
   134  1.3300000000000E+00 -6.1099442595381E-01  7.5472027321399E-01
   135  1.3400000000000E+00 -6.0375227994744E-01  7.0050470990741E-01
   136  1.3500000000000E+00 -5.9476282872949E-01  6.4599834085011E-01
   137  1.3600000000000E+00 -5.8413441759365E-01  5.9138346222624E-01
   138  1.3700000000000E+00 -5.7197903779729E-01  5.3684193125339E-01
   139  1.3800000000000E+00 -5.5841174535726E-01  4.8255441509390E-01
   140  1.3900000000000E+00 -5.4355007311309E-01  4.2869963468103E-01
   141  1.4000000000000E+00 -5.2751343872151E-01  3.7545360670008E-01
   142  1.4100000000000E+00 -5.1042255125012E-01  3.2298888700238E-01
   143  1.4200000000000E+00 -4.9239881903011E-01  2.7147381876195E-01
   144  1.4300000000000E+00 -4.7356376140440E-01  2.2107178869182E-01
   145  1.4400000000000E+00 -4.5403842697750E-01  1.7194049465406E-01
   146  1.4500000000000E+00 -4.3394282093215E-01  1.2423122800175E-01
   147  1.4600000000000E+00 -4.1339534393274E-01  7.8088174006518E-02
   148  1.4700000000000E+00 -3.9251224508400E-01  3.3647733736818E-02
   149  1.4800000000000E+00 -3.7140709136554E-01 -8.9621292049145E-03
   150  1.4900000000000E+00 -3.5019025591122E-01 -4.9622513638308E-02
   151  1.5000000000000E+00 -3.2896842745925E-01 -8.8224173927470E-02
   152  1.5100000000000E+00 -3.0784414326011E-01 -1.2466807764586E-01
   153  1.5200000000000E+00 -2.8691534769848E-01 -1.5886592403587E-01
   154  1.5300000000000E+00 -2.6627497886440E-01 -1.9074061935897E-01
   155  1.5400000000000E+00 -2.4601058529559E-01 -2.2022670505663E-01
   156  1.5500000000000E+00 -2.2620397510672E-01 -2.4727073444768E-01
   157  1.5600000000000E+00 -2.0693089972094E-01 -2.7183159348275E-01
   158  1.5700000000000E+00 -1.8826077441531E-01 -2.9388076088652E-01
   159  1.5800000000000E+00 -1.7025643788329E-01 -3.1340250284930E-01
   160  1.5900000000000E+00 -1.5297395299160E-01 -3.3039399731726E-01
   161  1.6000000000000E+00 -1.3646245085486E-01 -3.4486538290457E-01
   162  1.6100000000000E+00 -1.2076402026204E-01 -3.5683972752841E-01
   163  1.6200000000000E+00 -1.0591364434179E-01 -3.6635291211306E-01
   164  1.6300000000000E+00 -9.1939186143800E-02 -3.7345342512828E-01
   165  1.6400000000000E+00 -7.8861424519845E-02 -3.7820206437945E-01
   166  1.6500000000000E+00 -6.6694141305057E-02 -3.8067154335715E-01
   167  1.6600000000000E+00 -5.5444260311398E-02 -3.8094600062986E-01
   168  1.6700000000000E+00 -4.5112038050557E-02 -3.7912041221383E-01
   169  1.6800000000000E+00 -3.5691305409811E-02 -3.7529990855700E-01