Al    ONCVPSP-4.0.1  r_core=   1.92652   1.94971   1.94971
     13.0000      3.0000      220721    zatom,zion,pspd
     8      11   2     4   600     0    pspcod,pspxc,lmax,lloc,mmax,r2well
  5.99000000  5.00000000  0.00000000    rchrg fchrg qchrg
     2     2     2     0     0    nproj
     1     1           extension_switch
   0                         3.9020927307898E+00  3.2229335348000E-01
     1  0.0000000000000E+00 -4.4526610176732E-10  1.3609380011825E-09
     2  1.0000000000000E-02  3.6237216640807E-02 -2.4226846868975E-02
     3  2.0000000000000E-02  7.2388363722540E-02 -4.8245715403825E-02
     4  3.0000000000000E-02  1.0836819360102E-01 -7.1851066883961E-02
     5  4.0000000000000E-02  1.4409309274637E-01 -9.4842212312218E-02
     6  5.0000000000000E-02  1.7948187462598E-01 -1.1702566386781E-01
     7  6.0000000000000E-02  2.1445654389821E-01 -1.3821739924576E-01
     8  7.0000000000000E-02  2.4894302288219E-01 -1.5824501146116E-01
     9  8.0000000000000E-02  2.8287183171482E-01 -1.7694971805722E-01
    10  9.0000000000000E-02  3.1617871415235E-01 -1.9418820532762E-01
    11  1.0000000000000E-01  3.4880520161627E-01 -2.0983428512506E-01
    12  1.1000000000000E-01  3.8069910881252E-01 -2.2378034405738E-01
    13  1.2000000000000E-01  4.1181495506212E-01 -2.3593856734408E-01
    14  1.3000000000000E-01  4.4211430635978E-01 -2.4624192228955E-01
    15  1.4000000000000E-01  4.7156603411496E-01 -2.5464488919460E-01
    16  1.5000000000000E-01  5.0014648751702E-01 -2.6112393054125E-01
    17  1.6000000000000E-01  5.2783957748935E-01 -2.6567769241064E-01
    18  1.7000000000000E-01  5.5463677124663E-01 -2.6832693529572E-01
    19  1.8000000000000E-01  5.8053699753102E-01 -2.6911419470965E-01
    20  1.9000000000000E-01  6.0554646366524E-01 -2.6810317523093E-01
    21  2.0000000000000E-01  6.2967838661081E-01 -2.6537788482759E-01
    22  2.1000000000000E-01  6.5295264124573E-01 -2.6104151942980E-01
    23  2.2000000000000E-01  6.7539533006527E-01 -2.5521511073309E-01
    24  2.3000000000000E-01  6.9703827945138E-01 -2.4803595308074E-01
    25  2.4000000000000E-01  7.1791846853852E-01 -2.3965582795676E-01
    26  2.5000000000000E-01  7.3807739751719E-01 -2.3023904709099E-01
    27  2.6000000000000E-01  7.5756040294976E-01 -2.1996033740344E-01
    28  2.7000000000000E-01  7.7641592831979E-01 -2.0900259297162E-01
    29  2.8000000000000E-01  7.9469475858622E-01 -1.9755452086665E-01
    30  2.9000000000000E-01  8.1244922796210E-01 -1.8580820905300E-01
    31  3.0000000000000E-01  8.2973241047828E-01 -1.7395664556500E-01
    32  3.1000000000000E-01  8.4659730312097E-01 -1.6219121884875E-01
    33  3.2000000000000E-01  8.6309601144629E-01 -1.5069922948127E-01
    34  3.3000000000000E-01  8.7927894757233E-01 -1.3966144344630E-01
    35  3.4000000000000E-01  8.9519405033009E-01 -1.2924971675562E-01
    36  3.5000000000000E-01  9.1088603712034E-01 -1.1962472046137E-01
    37  3.6000000000000E-01  9.2639569667547E-01 -1.1093379401607E-01
    38  3.7000000000000E-01  9.4175923146853E-01 -1.0330895351282E-01
    39  3.8000000000000E-01  9.5700765795045E-01 -9.6865079597865E-02
    40  3.9000000000000E-01  9.7216627213696E-01 -9.1698307806427E-02
    41  4.0000000000000E-01  9.8725418731707E-01 -8.7884641756803E-02
    42  4.1000000000000E-01  1.0022839498227E+00 -8.5478807071773E-02
    43  4.2000000000000E-01  1.0172612378945E+00 -8.4513361110012E-02
    44  4.3000000000000E-01  1.0321846477124E+00 -8.4998070614668E-02
    45  4.4000000000000E-01  1.0470455696396E+00 -8.6919566257464E-02
    46  4.5000000000000E-01  1.0618281566726E+00 -9.0241279807683E-02
    47  4.6000000000000E-01  1.0765093860039E+00 -9.4903666327211E-02
    48  4.7000000000000E-01  1.0910592135035E+00 -1.0082471042064E-01
    49  4.8000000000000E-01  1.1054408198228E+00 -1.0790071219541E-01
    50  4.9000000000000E-01  1.1196109457348E+00 -1.1600734524805E-01
    51  5.0000000000000E-01  1.1335203132541E+00 -1.2500097572933E-01
    52  5.1000000000000E-01  1.1471141280495E+00 -1.3472022839180E-01
    53  5.2000000000000E-01  1.1603326576761E+00 -1.4498778252372E-01
    54  5.3000000000000E-01  1.1731118792328E+00 -1.5561237786090E-01
    55  5.4000000000000E-01  1.1853841891925E+00 -1.6639100797510E-01
    56  5.5000000000000E-01  1.1970791673827E+00 -1.7711127629499E-01
    57  5.6000000000000E-01  1.2081243864103E+00 -1.8755388785372E-01
    58  5.7000000000000E-01  1.2184462572378E+00 -1.9749524809769E-01
    59  5.8000000000000E-01  1.2279709011430E+00 -2.0671013865926E-01
    60  5.9000000000000E-01  1.2366250379216E+00 -2.1497443890806E-01
    61  6.0000000000000E-01  1.2443368799445E+00 -2.2206786136581E-01
    62  6.1000000000000E-01  1.2510370215488E+00 -2.2777666870860E-01
    63  6.2000000000000E-01  1.2566593132295E+00 -2.3189634009414E-01
    64  6.3000000000000E-01  1.2611417102151E+00 -2.3423415494107E-01
    65  6.4000000000000E-01  1.2644270852388E+00 -2.3461166305067E-01
    66  6.5000000000000E-01  1.2664639956759E+00 -2.3286701109020E-01
    67  6.6000000000000E-01  1.2672073956818E+00 -2.2885709694290E-01
    68  6.7000000000000E-01  1.2666192845497E+00 -2.2245952525276E-01
    69  6.8000000000000E-01  1.2646692831888E+00 -2.1357433963802E-01
    70  6.9000000000000E-01  1.2613351314078E+00 -2.0212550948891E-01
    71  7.0000000000000E-01  1.2566030995589E+00 -1.8806215197808E-01
    72  7.1000000000000E-01  1.2504683090507E+00 -1.7135947286556E-01
    73  7.2000000000000E-01  1.2429349572528E+00 -1.5201941284132E-01
    74  7.3000000000000E-01  1.2340164433976E+00 -1.3007098948302E-01
    75  7.4000000000000E-01  1.2237353932026E+00 -1.0557032837508E-01
    76  7.5000000000000E-01  1.2121235810926E+00 -7.8600380500836E-02
    77  7.6000000000000E-01  1.1992217500764E+00 -4.9270326640719E-02
    78  7.7000000000000E-01  1.1850793305124E+00 -1.7714673143061E-02
    79  7.8000000000000E-01  1.1697540601690E+00  1.5907952956873E-02
    80  7.9000000000000E-01  1.1533115091423E+00  5.1416297956352E-02
    81  8.0000000000000E-01  1.1358245143075E+00  8.8608249701278E-02
    82  8.1000000000000E-01  1.1173725290545E+00  1.2726286177798E-01
    83  8.2000000000000E-01  1.0980408950690E+00  1.6714261236960E-01
    84  8.3000000000000E-01  1.0779200438615E+00  2.0799587360054E-01
    85  8.4000000000000E-01  1.0571046366028E+00  2.4955956458546E-01
    86  8.5000000000000E-01  1.0356926515927E+00  2.9156195908248E-01
    87  8.6000000000000E-01  1.0137844293481E+00  3.3372561665236E-01
    88  8.7000000000000E-01  9.9148168585317E-01  3.7577040456971E-01
    89  8.8000000000000E-01  9.6888650494746E-01  4.1741657644119E-01
    90  8.9000000000000E-01  9.4610032114398E-01  4.5838787257470E-01
    91  9.0000000000000E-01  9.2322290435369E-01  4.9841460662669E-01
    92  9.1000000000000E-01  9.0035135805101E-01  5.3723670293993E-01
    93  9.2000000000000E-01  8.7757914234098E-01  5.7460664927221E-01
    94  9.3000000000000E-01  8.5499513318318E-01  6.1029233031438E-01
    95  9.4000000000000E-01  8.3268272869381E-01  6.4407970848687E-01
    96  9.5000000000000E-01  8.1071901298647E-01  6.7577531998998E-01
    97  9.6000000000000E-01  7.8917398743026E-01  7.0520855593946E-01
    98  9.7000000000000E-01  7.6810987850514E-01  7.3223370063460E-01
    99  9.8000000000000E-01  7.4758053062851E-01  7.5673170155295E-01
   100  9.9000000000000E-01  7.2763089141933E-01  7.7861164852057E-01
   101  1.0000000000000E+00  7.0829659586915E-01  7.9781194263759E-01
   102  1.0100000000000E+00  6.8960365481276E-01  8.1430113890993E-01
   103  1.0200000000000E+00  6.7156825194538E-01  8.2807845011992E-01
   104  1.0300000000000E+00  6.5419665243330E-01  8.3917390321319E-01
   105  1.0400000000000E+00  6.3748522492215E-01  8.4764814335042E-01
   106  1.0500000000000E+00  6.2142057747563E-01  8.5359188472836E-01
   107  1.0600000000000E+00  6.0597980669092E-01  8.5712501127014E-01
   108  1.0700000000000E+00  5.9113085795341E-01  8.5839533426778E-01
   109  1.0800000000000E+00  5.7683299351925E-01  8.5757701800560E-01
   110  1.0900000000000E+00  5.6303736387466E-01  8.5486868822718E-01
   111  1.1000000000000E+00  5.4968767661875E-01  8.5049124202117E-01
   112  1.1100000000000E+00  5.3672095597565E-01  8.4468538121737E-01
   113  1.1200000000000E+00  5.2406838496781E-01  8.3770889468903E-01
   114  1.1300000000000E+00  5.1165622129068E-01  8.2983371799916E-01
   115  1.1400000000000E+00  4.9940677703338E-01  8.2134280157060E-01
   116  1.1500000000000E+00  4.8723945159552E-01  8.1252682098032E-01
   117  1.1600000000000E+00  4.7507180647258E-01  8.0368076503468E-01
   118  1.1700000000000E+00  4.6282067002458E-01  7.9510043896164E-01
   119  1.1800000000000E+00  4.5040325991548E-01  7.8707892132675E-01
   120  1.1900000000000E+00  4.3773831061728E-01  7.7990301413321E-01
   121  1.2000000000000E+00  4.2474719321828E-01  7.7384972598479E-01
   122  1.2100000000000E+00  4.1135501476151E-01  7.6918282817009E-01
   123  1.2200000000000E+00  3.9749168446856E-01  7.6614952306123E-01
   124  1.2300000000000E+00  3.8309293447398E-01  7.6497726331723E-01
   125  1.2400000000000E+00  3.6810128310524E-01  7.6587075904436E-01
   126  1.2500000000000E+00  3.5246692929054E-01  7.6900920830089E-01
   127  1.2600000000000E+00  3.3614856734948E-01  7.7454378418099E-01
   128  1.2700000000000E+00  3.1911411222513E-01  7.8259540915326E-01
   129  1.2800000000000E+00  3.0134132613083E-01  7.9325284442623E-01
   130  1.2900000000000E+00  2.8281833860326E-01  8.0657111889308E-01
   131  1.3000000000000E+00  2.6354405307618E-01  8.2257031866142E-01
   132  1.3100000000000E+00  2.4352843428823E-01  8.4123475439780E-01
   133  1.3200000000000E+00  2.2279267210696E-01  8.6251251972444E-01
   134  1.3300000000000E+00  2.0136921868648E-01  8.8631544971141E-01
   135  1.3400000000000E+00  1.7930169724588E-01  9.1251948421111E-01
   136  1.3500000000000E+00  1.5664468215767E-01  9.4096543638736E-01
   137  1.3600000000000E+00  1.3346335144636E-01  9.7146016237570E-01
   138  1.3700000000000E+00  1.0983301421506E-01  1.0037781235791E+00
   139  1.3800000000000E+00  8.5838516906744E-02  1.0376633287647E+00
   140  1.3900000000000E+00  6.1573533670679E-02  1.0728316388731E+00
   141  1.4000000000000E+00  3.7139747412047E-02  1.1089734133753E+00
   142  1.4100000000000E+00  1.2645929358662E-02  1.1457564731050E+00
   143  1.4200000000000E+00 -1.1793073854096E-02  1.1828293508639E+00
   144  1.4300000000000E+00 -3.6057435495273E-02  1.2198247977350E+00
   145  1.4400000000000E+00 -6.0023515381761E-02  1.2563635100004E+00
   146  1.4500000000000E+00 -8.3565085925359E-02  1.2920580388944E+00
   147  1.4600000000000E+00 -1.0655460490848E-01  1.3265168431204E+00
   148  1.4700000000000E+00 -1.2886452170802E-01  1.3593484422031E+00
   149  1.4800000000000E+00 -1.5036860321538E-01  1.3901656273089E+00
   150  1.4900000000000E+00 -1.7094326537695E-01  1.4185896851977E+00
   151  1.5000000000000E+00 -1.9046889610512E-01  1.4442545904611E+00
   152  1.5100000000000E+00 -2.0883115528847E-01  1.4668111211797E+00
   153  1.5200000000000E+00 -2.2592223776103E-01  1.4859308535818E+00
   154  1.5300000000000E+00 -2.4164208537653E-01  1.5013099922237E+00
   155  1.5400000000000E+00 -2.5589953476796E-01  1.5126729936112E+00
   156  1.5500000000000E+00 -2.6861338795561E-01  1.5197759430451E+00
   157  1.5600000000000E+00 -2.7971339368934E-01  1.5224096467753E+00
   158  1.5700000000000E+00 -2.8914112826794E-01  1.5204024042646E+00
   159  1.5800000000000E+00 -2.9685076556069E-01  1.5136224284766E+00
   160  1.5900000000000E+00 -3.0280972705376E-01  1.5019798855676E+00
   161  1.6000000000000E+00 -3.0699920394537E-01  1.4854285291544E+00
   162  1.6100000000000E+00 -3.0941454460649E-01  1.4639669084080E+00
   163  1.6200000000000E+00 -3.1006550209501E-01  1.4376391335369E+00
   164  1.6300000000000E+00 -3.0897633784683E-01  1.4065351867456E+00
   165  1.6400000000000E+00 -3.0618577914674E-01  1.3707907714046E+00
   166  1.6500000000000E+00 -3.0174682950314E-01  1.3305866969482E+00
   167  1.6600000000000E+00 -2.9572643257876E-01  1.2861478018175E+00
   168  1.6700000000000E+00 -2.8820499186509E-01  1.2377414215853E+00
   169  1.6800000000000E+00 -2.7927574980305E-01  1.1856754141546E+00
   170  1.6900000000000E+00 -2.6904403153899E-01  1.1302957585822E+00
   171  1.7000000000000E+00 -2.5762635993983E-01  1.0719837485787E+00
   172  1.7100000000000E+00 -2.4514944986453E-01  1.0111528060387E+00
   173  1.7200000000000E+00 -2.3174909098254E-01  9.4824494400473E-01
   174  1.7300000000000E+00 -2.1756892963152E-01  8.8372691223362E-01
   175  1.7400000000000E+00 -2.0275916130183E-01  8.1808606195443E-01
   176  1.7500000000000E+00 -1.8747514631342E-01  7.5182596947144E-01
   177  1.7600000000000E+00 -1.7187596209956E-01  6.8546186091191E-01
   178  1.7700000000000E+00 -1.5612290622350E-01  6.1951588264229E-01
   179  1.7800000000000E+00 -1.4037796482060E-01  5.5451226363910E-01
   180  1.7900000000000E+00 -1.2480226157110E-01  4.9097241738319E-01
   181  1.8000000000000E+00 -1.0955450051568E-01  4.2941002464911E-01
   182  1.8100000000000E+00 -9.4789438773465E-02  3.7032621736759E-01
   183  1.8200000000000E+00 -8.0656324284123E-02  3.1420462429227E-01
   184  1.8300000000000E+00 -6.7297505837702E-02  2.6150705383035E-01
   185  1.8400000000000E+00 -5.4849084202917E-02  2.1267590243222E-01
   186  1.8500000000000E+00 -4.3437508052910E-02  1.6812240181028E-01
   187  1.8600000000000E+00 -3.3174898028252E-02  1.2821091056832E-01
   188  1.8700000000000E+00 -2.4161069616334E-02  9.3266495933668E-02
   189  1.8800000000000E+00 -1.6482323691684E-02  6.3570970912343E-02
   190  1.8900000000000E+00 -1.0210609454547E-02  3.9360255899480E-02
   191  1.9000000000000E+00 -5.4048638966018E-03  2.0830072751187E-02
   192  1.9100000000000E+00 -2.0858734062744E-03  8.0393670034514E-03
   193  1.9200000000000E+00 -3.6980760350374E-04  1.4257547580075E-03
   194  1.9300000000000E+00  4.8086080050191E-05 -1.8554054000548E-04
   195  1.9400000000000E+00 -9.0394501798162E-06  3.4860632451168E-05
   196  1.9500  0. -0.
   197  1.9600  0. -0.
   198  1.9700  0. -0.
   199  1.9800  0.  0.
   200  1.9900  0.  0.
   201  2.0000  0.  0.
   202  2.0100  0.  0.
   203  2.0200  0.  0.
   204  2.0300  0.  0.
   205  2.0400  0.  0.
   206  2.0500  0.  0.
   207  2.0600  0.  0.
   208  2.0700  0.  0.
   209  2.0800  0.  0.
   210  2.0900  0.  0.
   211  2.1000  0.  0.
   212  2.1100  0.  0.
   213  2.1200  0.  0.
   214  2.1300  0.  0.
   215  2.1400  0.  0.
   216  2.1500  0.  0.
   217  2.1600  0.  0.
   218  2.1700  0.  0.
   219  2.1800  0.  0.
   220  2.1900  0.  0.
   221  2.2000  0.  0.
   222  2.2100  0.  0.
   223  2.2200  0.  0.
   224  2.2300  0.  0.
   225  2.2400  0.  0.
   226  2.2500  0.  0.
   227  2.2600  0.  0.
   228  2.2700  0.  0.
   229  2.2800  0.  0.
   230  2.2900  0.  0.
   231  2.3000  0.  0.
   232  2.3100  0.  0.
   233  2.3200  0.  0.
   234  2.3300  0.  0.
   235  2.3400  0.  0.
   236  2.3500  0.  0.
   237  2.3600  0.  0.
   238  2.3700  0.  0.
   239  2.3800  0.  0.
   240  2.3900  0.  0.
   241  2.4000  0.  0.
   242  2.4100  0.  0.
   243  2.4200  0.  0.
   244  2.4300  0.  0.
   245  2.4400  0.  0.
   246  2.4500  0.  0.
   247  2.4600  0.  0.
   248  2.4700  0.  0.
   249  2.4800  0.  0.
   250  2.4900  0.  0.
   251  2.5000  0.  0.
   252  2.5100  0.  0.
   253  2.5200  0.  0.
   254  2.5300  0.  0.
   255  2.5400  0.  0.
   256  2.5500  0.  0.
   257  2.5600  0.  0.
   258  2.5700  0.  0.
   259  2.5800  0.  0.
   260  2.5900  0.  0.
   261  2.6000  0.  0.
   262  2.6100  0.  0.
   263  2.6200  0.  0.
   264  2.6300  0.  0.
   265  2.6400  0.  0.
   266  2.6500  0.  0.
   267  2.6600  0.  0.
   268  2.6700  0.  0.
   269  2.6800  0.  0.
   270  2.6900  0.  0.
   271  2.7000  0.  0.
   272  2.7100  0.  0.
   273  2.7200  0.  0.
   274  2.7300  0.  0.
   275  2.7400  0.  0.
   276  2.7500  0.  0.
   277  2.7600  0.  0.
   278  2.7700  0.  0.
   279  2.7800  0.  0.
   280  2.7900  0.  0.
   281  2.8000  0.  0.
   282  2.8100  0.  0.
   283  2.8200  0.  0.
   284  2.8300  0.  0.
   285  2.8400  0.  0.
   286  2.8500  0.  0.
   287  2.8600  0.  0.
   288  2.8700  0.  0.
   289  2.8800  0.  0.
   290  2.8900  0.  0.
   291  2.9000  0.  0.
   292  2.9100  0.  0.
   293  2.9200  0.  0.
   294  2.9300  0.  0.
   295  2.9400  0.  0.
   296  2.9500  0.  0.
   297  2.9600  0.  0.
   298  2.9700  0.  0.
   299  2.9800  0.  0.
   300  2.9900  0.  0.
   301  3.0000  0.  0.
   302  3.0100  0.  0.
   303  3.0200  0.  0.
   304  3.0300  0.  0.
   305  3.0400  0.  0.
   306  3.0500  0.  0.
   307  3.0600  0.  0.
   308  3.0700  0.  0.
   309  3.0800  0.  0.
   310  3.0900  0.  0.
   311  3.1000  0.  0.
   312  3.1100  0.  0.
   313  3.1200  0.  0.
   314  3.1300  0.  0.
   315  3.1400  0.  0.
   316  3.1500  0.  0.
   317  3.1600  0.  0.
   318  3.1700  0.  0.
   319  3.1800  0.  0.
   320  3.1900  0.  0.
   321  3.2000  0.  0.
   322  3.2100  0.  0.
   323  3.2200  0.  0.
   324  3.2300  0.  0.
   325  3.2400  0.  0.
   326  3.2500  0.  0.
   327  3.2600  0.  0.
   328  3.2700  0.  0.
   329  3.2800  0.  0.
   330  3.2900  0.  0.
   331  3.3000  0.  0.
   332  3.3100  0.  0.
   333  3.3200  0.  0.
   334  3.3300  0.  0.
   335  3.3400  0.  0.
   336  3.3500  0.  0.
   337  3.3600  0.  0.
   338  3.3700  0.  0.
   339  3.3800  0.  0.
   340  3.3900  0.  0.
   341  3.4000  0.  0.
   342  3.4100  0.  0.
   343  3.4200  0.  0.
   344  3.4300  0.  0.
   345  3.4400  0.  0.
   346  3.4500  0.  0.
   347  3.4600  0.  0.
   348  3.4700  0.  0.
   349  3.4800  0.  0.
   350  3.4900  0.  0.
   351  3.5000  0.  0.
   352  3.5100  0.  0.
   353  3.5200  0.  0.
   354  3.5300  0.  0.
   355  3.5400  0.  0.
   356  3.5500  0.  0.
   357  3.5600  0.  0.
   358  3.5700  0.  0.
   359  3.5800  0.  0.
   360  3.5900  0.  0.
   361  3.6000  0.  0.
   362  3.6100  0.  0.
   363  3.6200  0.  0.
   364  3.6300  0.  0.
   365  3.6400  0.  0.
   366  3.6500  0.  0.
   367  3.6600  0.  0.
   368  3.6700  0.  0.
   369  3.6800  0.  0.
   370  3.6900  0.  0.
   371  3.7000  0.  0.
   372  3.7100  0.  0.
   373  3.7200  0.  0.
   374  3.7300  0.  0.
   375  3.7400  0.  0.
   376  3.7500  0.  0.
   377  3.7600  0.  0.
   378  3.7700  0.  0.
   379  3.7800  0.  0.
   380  3.7900  0.  0.
   381  3.8000  0.  0.
   382  3.8100  0.  0.
   383  3.8200  0.  0.
   384  3.8300  0.  0.
   385  3.8400  0.  0.
   386  3.8500  0.  0.
   387  3.8600  0.  0.
   388  3.8700  0.  0.
   389  3.8800  0.  0.
   390  3.8900  0.  0.
   391  3.9000  0.  0.
   392  3.9100  0.  0.
   393  3.9200  0.  0.
   394  3.9300  0.  0.
   395  3.9400  0.  0.
   396  3.9500  0.  0.
   397  3.9600  0.  0.
   398  3.9700  0.  0.
   399  3.9800  0.  0.
   400  3.9900  0.  0.
   401  4.0000  0.  0.
   402  4.0100  0.  0.
   403  4.0200  0.  0.
   404  4.0300  0.  0.
   405  4.0400  0.  0.
   406  4.0500  0.  0.
   407  4.0600  0.  0.
   408  4.0700  0.  0.
   409  4.0800  0.  0.
   410  4.0900  0.  0.
   411  4.1000  0.  0.
   412  4.1100  0.  0.
   413  4.1200  0.  0.
   414  4.1300  0.  0.
   415  4.1400  0.  0.
   416  4.1500  0.  0.
   417  4.1600  0.  0.
   418  4.1700  0.  0.
   419  4.1800  0.  0.
   420  4.1900  0.  0.
   421  4.2000  0.  0.
   422  4.2100  0.  0.
   423  4.2200  0.  0.
   424  4.2300  0.  0.
   425  4.2400  0.  0.
   426  4.2500  0.  0.
   427  4.2600  0.  0.
   428  4.2700  0.  0.
   429  4.2800  0.  0.
   430  4.2900  0.  0.
   431  4.3000  0.  0.
   432  4.3100  0.  0.
   433  4.3200  0.  0.
   434  4.3300  0.  0.
   435  4.3400  0.  0.
   436  4.3500  0.  0.
   437  4.3600  0.  0.
   438  4.3700  0.  0.
   439  4.3800  0.  0.
   440  4.3900  0.  0.
   441  4.4000  0.  0.
   442  4.4100  0.  0.
   443  4.4200  0.  0.
   444  4.4300  0.  0.
   445  4.4400  0.  0.
   446  4.4500  0.  0.
   447  4.4600  0.  0.
   448  4.4700  0.  0.
   449  4.4800  0.  0.
   450  4.4900  0.  0.
   451  4.5000  0.  0.
   452  4.5100  0.  0.
   453  4.5200  0.  0.
   454  4.5300  0.  0.
   455  4.5400  0.  0.
   456  4.5500  0.  0.
   457  4.5600  0.  0.
   458  4.5700  0.  0.
   459  4.5800  0.  0.
   460  4.5900  0.  0.
   461  4.6000  0.  0.
   462  4.6100  0.  0.
   463  4.6200  0.  0.
   464  4.6300  0.  0.
   465  4.6400  0.  0.
   466  4.6500  0.  0.
   467  4.6600  0.  0.
   468  4.6700  0.  0.
   469  4.6800  0.  0.
   470  4.6900  0.  0.
   471  4.7000  0.  0.
   472  4.7100  0.  0.
   473  4.7200  0.  0.
   474  4.7300  0.  0.
   475  4.7400  0.  0.
   476  4.7500  0.  0.
   477  4.7600  0.  0.
   478  4.7700  0.  0.
   479  4.7800  0.  0.
   480  4.7900  0.  0.
   481  4.8000  0.  0.
   482  4.8100  0.  0.
   483  4.8200  0.  0.
   484  4.8300  0.  0.
   485  4.8400  0.  0.
   486  4.8500  0.  0.
   487  4.8600  0.  0.
   488  4.8700  0.  0.
   489  4.8800  0.  0.
   490  4.8900  0.  0.
   491  4.9000  0.  0.
   492  4.9100  0.  0.
   493  4.9200  0.  0.
   494  4.9300  0.  0.
   495  4.9400  0.  0.
   496  4.9500  0.  0.
   497  4.9600  0.  0.
   498  4.9700  0.  0.
   499  4.9800  0.  0.
   500  4.9900  0.  0.
   501  5.0000  0.  0.
   502  5.0100  0.  0.
   503  5.0200  0.  0.
   504  5.0300  0.  0.
   505  5.0400  0.  0.
   506  5.0500  0.  0.
   507  5.0600  0.  0.
   508  5.0700  0.  0.
   509  5.0800  0.  0.
   510  5.0900  0.  0.
   511  5.1000  0.  0.
   512  5.1100  0.  0.
   513  5.1200  0.  0.
   514  5.1300  0.  0.
   515  5.1400  0.  0.
   516  5.1500  0.  0.
   517  5.1600  0.  0.
   518  5.1700  0.  0.
   519  5.1800  0.  0.
   520  5.1900  0.  0.
   521  5.2000  0.  0.
   522  5.2100  0.  0.
   523  5.2200  0.  0.
   524  5.2300  0.  0.
   525  5.2400  0.  0.
   526  5.2500  0.  0.
   527  5.2600  0.  0.
   528  5.2700  0.  0.
   529  5.2800  0.  0.
   530  5.2900  0.  0.
   531  5.3000  0.  0.
   532  5.3100  0.  0.
   533  5.3200  0.  0.
   534  5.3300  0.  0.
   535  5.3400  0.  0.
   536  5.3500  0.  0.
   537  5.3600  0.  0.
   538  5.3700  0.  0.
   539  5.3800  0.  0.
   540  5.3900  0.  0.
   541  5.4000  0.  0.
   542  5.4100  0.  0.
   543  5.4200  0.  0.
   544  5.4300  0.  0.
   545  5.4400  0.  0.
   546  5.4500  0.  0.
   547  5.4600  0.  0.
   548  5.4700  0.  0.
   549  5.4800  0.  0.
   550  5.4900  0.  0.
   551  5.5000  0.  0.
   552  5.5100  0.  0.
   553  5.5200  0.  0.
   554  5.5300  0.  0.
   555  5.5400  0.  0.
   556  5.5500  0.  0.
   557  5.5600  0.  0.
   558  5.5700  0.  0.
   559  5.5800  0.  0.
   560  5.5900  0.  0.
   561  5.6000  0.  0.
   562  5.6100  0.  0.
   563  5.6200  0.  0.
   564  5.6300  0.  0.
   565  5.6400  0.  0.
   566  5.6500  0.  0.
   567  5.6600  0.  0.
   568  5.6700  0.  0.
   569  5.6800  0.  0.
   570  5.6900  0.  0.
   571  5.7000  0.  0.
   572  5.7100  0.  0.
   573  5.7200  0.  0.
   574  5.7300  0.  0.
   575  5.7400  0.  0.
   576  5.7500  0.  0.
   577  5.7600  0.  0.
   578  5.7700  0.  0.
   579  5.7800  0.  0.
   580  5.7900  0.  0.
   581  5.8000  0.  0.
   582  5.8100  0.  0.
   583  5.8200  0.  0.
   584  5.8300  0.  0.
   585  5.8400  0.  0.
   586  5.8500  0.  0.
   587  5.8600  0.  0.
   588  5.8700  0.  0.
   589  5.8800  0.  0.
   590  5.8900  0.  0.
   591  5.9000  0.  0.
   592  5.9100  0.  0.
   593  5.9200  0.  0.
   594  5.9300  0.  0.
   595  5.9400  0.  0.
   596  5.9500  0.  0.
   597  5.9600  0.  0.
   598  5.9700  0.  0.
   599  5.9800  0.  0.
   600  5.9900  0.  0.
   1                         2.0252822697396E+00  3.7854215469311E-01
     1  0.0000000000000E+00  3.5192408882889E-09 -2.8668541776633E-09
     2  1.0000000000000E-02  2.5161059672502E-04 -4.6742789304119E-04
     3  2.0000000000000E-02  9.9865782344347E-04 -1.8622047231846E-03
     4  3.0000000000000E-02  2.2179236096426E-03 -4.1619227322192E-03
     5  4.0000000000000E-02  3.8711612651851E-03 -7.3296100120759E-03
     6  5.0000000000000E-02  5.9057637460695E-03 -1.1314286436412E-02
     7  6.0000000000000E-02  8.2556855727425E-03 -1.6051730840245E-02
     8  7.0000000000000E-02  1.0842604971830E-02 -2.1465448506370E-02
     9  8.0000000000000E-02  1.3577309292921E-02 -2.7467825150430E-02
    10  9.0000000000000E-02  1.6361283465063E-02 -3.3961450919219E-02
    11  1.0000000000000E-01  1.9088478248363E-02 -4.0840595466017E-02
    12  1.1000000000000E-01  2.1647232345852E-02 -4.7992812976321E-02
    13  1.2000000000000E-01  2.3922320107120E-02 -5.5300654117640E-02
    14  1.3000000000000E-01  2.5797094610452E-02 -6.2643460304570E-02
    15  1.4000000000000E-01  2.7155694381738E-02 -6.9899214427270E-02
    16  1.5000000000000E-01  2.7885280918135E-02 -7.6946421305477E-02
    17  1.6000000000000E-01  2.7878273547995E-02 -8.3665990614220E-02
    18  1.7000000000000E-01  2.7034547986082E-02 -8.9943094889061E-02
    19  1.8000000000000E-01  2.5263565237922E-02 -9.5668975461157E-02
    20  1.9000000000000E-01  2.2486398266713E-02 -1.0074266979300E-01
    21  2.0000000000000E-01  1.8637625051628E-02 -1.0507263467707E-01
    22  2.1000000000000E-01  1.3667058322520E-02 -1.0857824110936E-01
    23  2.2000000000000E-01  7.5412843318327E-03 -1.1119111834026E-01
    24  2.3000000000000E-01  2.4498549343067E-04 -1.1285632661494E-01
    25  2.4000000000000E-01 -8.2179754522273E-03 -1.1353334041716E-01
    26  2.5000000000000E-01 -1.7823728933435E-02 -1.1319682659510E-01
    27  2.6000000000000E-01 -2.8527845453814E-02 -1.1183720453966E-01
    28  2.7000000000000E-01 -4.0265067987568E-02 -1.0946097856956E-01
    29  2.8000000000000E-01 -5.2949338079220E-02 -1.0609083581147E-01
    30  2.9000000000000E-01 -6.6474119864881E-02 -1.0176550610738E-01
    31  3.0000000000000E-01 -8.0713022149761E-02 -9.6539383789708E-02
    32  3.1000000000000E-01 -9.5520714565304E-02 -9.0481914494603E-02
    33  3.2000000000000E-01 -1.1073412974428E-01 -8.3676753488510E-02
    34  3.3000000000000E-01 -1.2617393944864E-01 -7.6220705218914E-02
    35  3.4000000000000E-01 -1.4164628871717E-01 -6.8222456921831E-02
    36  3.5000000000000E-01 -1.5694476842033E-01 -5.9801122083963E-02
    37  3.6000000000000E-01 -1.7185260316943E-01 -5.1084612325116E-02
    38  3.7000000000000E-01 -1.8614502837245E-01 -4.2207858798197E-02
    39  3.8000000000000E-01 -1.9959182740464E-01 -3.3310906464175E-02
    40  3.9000000000000E-01 -2.1195999740719E-01 -2.4536906556018E-02
    41  4.0000000000000E-01 -2.2301651017702E-01 -1.6030034170428E-02
    42  4.1000000000000E-01 -2.3253113299460E-01 -7.9333591956754E-03
    43  4.2000000000000E-01 -2.4027927307890E-01 -3.8669967844523E-04
    44  4.3000000000000E-01 -2.4604480867715E-01  6.4755127614856E-03
    45  4.4000000000000E-01 -2.4962286960361E-01  1.2526325752306E-02
    46  4.5000000000000E-01 -2.5082253034214E-01  1.7648287804730E-02
    47  4.6000000000000E-01 -2.4946937962016E-01  2.1735370032625E-02
    48  4.7000000000000E-01 -2.4540793163989E-01  2.4694760320779E-02
    49  4.8000000000000E-01 -2.3850384590186E-01  2.6448503771036E-02
    50  4.9000000000000E-01 -2.2864592475575E-01  2.6934965092674E-02
    51  5.0000000000000E-01 -2.1574786043820E-01  2.6110090779802E-02
    52  5.1000000000000E-01 -1.9974970637430E-01  2.3948451411019E-02
    53  5.2000000000000E-01 -1.8061905089160E-01  2.0444047183362E-02
    54  5.3000000000000E-01 -1.5835187518027E-01  1.5610862818542E-02
    55  5.4000000000000E-01 -1.3297308128446E-01  9.4831612162033E-03
    56  5.5000000000000E-01 -1.0453668007707E-01  2.1155086344941E-03
    57  5.6000000000000E-01 -7.3125633499344E-02 -6.4174722910978E-03
    58  5.7000000000000E-01 -3.8851349783511E-02 -1.6021621770399E-02
    59  5.8000000000000E-01 -1.8528348614068E-03 -2.6584030761473E-02
    60  5.9000000000000E-01  3.7704492361853E-02 -3.7974090368325E-02
    61  6.0000000000000E-01  7.9630308782664E-02 -5.0044791988226E-02
    62  6.1000000000000E-01  1.2371120355456E-01 -6.2634264016313E-02
    63  6.2000000000000E-01  1.6971278175900E-01 -7.5567527626511E-02
    64  6.3000000000000E-01  2.1738203096579E-01 -8.8658451062811E-02
    65  6.4000000000000E-01  2.6644992278769E-01 -1.0171187903543E-01
    66  6.5000000000000E-01  3.1663421830214E-01 -1.1452591126194E-01
    67  6.6000000000000E-01  3.6764244336473E-01 -1.2689430195984E-01
    68  6.7000000000000E-01  4.1917499741257E-01 -1.3860895021608E-01
    69  6.8000000000000E-01  4.7092835738675E-01 -1.4946244965819E-01
    70  6.9000000000000E-01  5.2259833691915E-01 -1.5925066475370E-01
    71  7.0000000000000E-01  5.7388335995299E-01 -1.6777530038706E-01
    72  7.1000000000000E-01  6.2448770751468E-01 -1.7484643111791E-01
    73  7.2000000000000E-01  6.7412469643592E-01 -1.8028495671897E-01
    74  7.3000000000000E-01  7.2251974944185E-01 -1.8392495122600E-01
    75  7.4000000000000E-01  7.6941331716943E-01 -1.8561587380156E-01
    76  7.5000000000000E-01  8.1456361434796E-01 -1.8522461120910E-01
    77  7.6000000000000E-01  8.5774913454328E-01 -1.8263732359661E-01
    78  7.7000000000000E-01  8.9877091051284E-01 -1.7776106757937E-01
    79  7.8000000000000E-01  9.3745449031090E-01 -1.7052517326207E-01
    80  7.9000000000000E-01  9.7365160278241E-01 -1.6088235481979E-01
    81  8.0000000000000E-01  1.0072414899502E+00 -1.4880953752987E-01
    82  8.1000000000000E-01  1.0381318879833E+00 -1.3430838767091E-01
    83  8.2000000000000E-01  1.0662596428847E+00 -1.1740553543922E-01
    84  8.3000000000000E-01  1.0915909516950E+00 -9.8152484928225E-02
    85  8.4000000000000E-01  1.1141212248228E+00 -7.6625209225166E-02
    86  8.5000000000000E-01  1.1338745700094E+00 -5.2923432749532E-02
    87  8.6000000000000E-01  1.1509029033702E+00 -2.7169607037882E-02
    88  8.7000000000000E-01  1.1652846978415E+00  4.9240978352701E-04
    89  8.8000000000000E-01  1.1771233841593E+00  2.9898955655427E-02
    90  8.9000000000000E-01  1.1865454241252E+00  6.0868431394778E-02
    91  9.0000000000000E-01  1.1936980803236E+00  9.3203410083351E-02
    92  9.1000000000000E-01  1.1987469105784E+00  1.2669296411172E-01
    93  9.2000000000000E-01  1.2018730192313E+00  1.6111518189483E-01