Si    ONCVPSP-4.0.1  r_core=   1.91059   1.91059   1.91059
     14.0000      4.0000      220721    zatom,zion,pspd
     8      11   2     4   600     0    pspcod,pspxc,lmax,lloc,mmax,r2well
  5.99000000  4.00000000  0.00000000    rchrg fchrg qchrg
     2     2     2     0     0    nproj
     1     1           extension_switch
   0                         4.8355600270160E+00  4.6482978127714E-01
     1  0.0000000000000E+00 -4.2721692850023E-10  1.0730621391453E-09
     2  1.0000000000000E-02  3.4301057144534E-02 -1.4719901109426E-02
     3  2.0000000000000E-02  6.8557158459459E-02 -2.9382093860736E-02
     4  3.0000000000000E-02  1.0272376792660E-01 -4.3929708971785E-02
     5  4.0000000000000E-02  1.3675718229630E-01 -5.8307539479194E-02
     6  5.0000000000000E-02  1.7061493044712E-01 -7.2462832594700E-02
     7  6.0000000000000E-02  2.0425615262531E-01 -8.6346035176867E-02
     8  7.0000000000000E-02  2.3764195336819E-01 -9.9911478640898E-02
     9  8.0000000000000E-02  2.7073572234230E-01 -1.1311799020239E-01
    10  9.0000000000000E-02  3.0350341784866E-01 -1.2592941865784E-01
    11  1.0000000000000E-01  3.3591380835425E-01 -1.3831506442385E-01
    12  1.1000000000000E-01  3.6793866809191E-01 -1.5025000526249E-01
    13  1.2000000000000E-01  3.9955292351908E-01 -1.6171531098350E-01
    14  1.3000000000000E-01  4.3073474822753E-01 -1.7269814240315E-01
    15  1.4000000000000E-01  4.6146560473852E-01 -1.8319173192168E-01
    16  1.5000000000000E-01  4.9173023248750E-01 -1.9319524521989E-01
    17  1.6000000000000E-01  5.2151658218554E-01 -2.0271352573531E-01
    18  1.7000000000000E-01  5.5081569762681E-01 -2.1175672572158E-01
    19  1.8000000000000E-01  5.7962154687946E-01 -2.2033982978566E-01
    20  1.9000000000000E-01  6.0793080563566E-01 -2.2848207879838E-01
    21  2.0000000000000E-01  6.3574259629407E-01 -2.3620630395267E-01
    22  2.1000000000000E-01  6.6305818708910E-01 -2.4353818246432E-01
    23  2.2000000000000E-01  6.8988065625708E-01 -2.5050542794580E-01
    24  2.3000000000000E-01  7.1621452682581E-01 -2.5713692980341E-01
    25  2.4000000000000E-01  7.4206537812356E-01 -2.6346185709099E-01
    26  2.5000000000000E-01  7.6743944051704E-01 -2.6950874307772E-01
    27  2.6000000000000E-01  7.9234318019745E-01 -2.7530456733689E-01
    28  2.7000000000000E-01  8.1678288103635E-01 -2.8087385242796E-01
    29  2.8000000000000E-01  8.4076423062233E-01 -2.8623779221494E-01
    30  2.9000000000000E-01  8.6429191756592E-01 -2.9141342854257E-01
    31  3.0000000000000E-01  8.8736924702210E-01 -2.9641289237672E-01
    32  3.1000000000000E-01  9.0999778112976E-01 -3.0124272461781E-01
    33  3.2000000000000E-01  9.3217701070850E-01 -3.0590329062611E-01
    34  3.3000000000000E-01  9.5390406409062E-01 -3.1038830107409E-01
    35  3.4000000000000E-01  9.7517345840727E-01 -3.1468445008353E-01
    36  3.5000000000000E-01  9.9597689799971E-01 -3.1877117974110E-01
    37  3.6000000000000E-01  1.0163031239010E+00 -3.2262057804235E-01
    38  3.7000000000000E-01  1.0361378175397E+00 -3.2619741512487E-01
    39  3.8000000000000E-01  1.0554635609679E+00 -3.2945932035005E-01
    40  3.9000000000000E-01  1.0742598550264E+00 -3.3235710041786E-01
    41  4.0000000000000E-01  1.0925031959378E+00 -3.3483519628711E-01
    42  4.1000000000000E-01  1.1101672098878E+00 -3.3683227426669E-01
    43  4.2000000000000E-01  1.1272228442205E+00 -3.3828194427881E-01
    44  4.3000000000000E-01  1.1436386129553E+00 -3.3911359601437E-01
    45  4.4000000000000E-01  1.1593808934475E+00 -3.3925334154107E-01
    46  4.5000000000000E-01  1.1744142701681E+00 -3.3862505092443E-01
    47  4.6000000000000E-01  1.1887019207928E+00 -3.3715146561358E-01
    48  4.7000000000000E-01  1.2022060390747E+00 -3.3475537276243E-01
    49  4.8000000000000E-01  1.2148882883366E+00 -3.3136082232752E-01
    50  4.9000000000000E-01  1.2267102788814E+00 -3.2689436773517E-01
    51  5.0000000000000E-01  1.2376340621711E+00 -3.2128631015994E-01
    52  5.1000000000000E-01  1.2476226342969E+00 -3.1447192602182E-01
    53  5.2000000000000E-01  1.2566404410411E+00 -3.0639265720155E-01
    54  5.3000000000000E-01  1.2646538767338E+00 -2.9699724369761E-01
    55  5.4000000000000E-01  1.2716317691262E+00 -2.8624277900606E-01
    56  5.5000000000000E-01  1.2775458426471E+00 -2.7409566939043E-01
    57  5.6000000000000E-01  1.2823711526700E+00 -2.6053247941405E-01
    58  5.7000000000000E-01  1.2860864837995E+00 -2.4554064761513E-01
    59  5.8000000000000E-01  1.2886747056739E+00 -2.2911905799733E-01
    60  5.9000000000000E-01  1.2901230803791E+00 -2.1127845505843E-01
    61  6.0000000000000E-01  1.2904235162602E+00 -1.9204169236023E-01
    62  6.1000000000000E-01  1.2895727636945E+00 -1.7144380711809E-01
    63  6.2000000000000E-01  1.2875725492431E+00 -1.4953191592399E-01
    64  6.3000000000000E-01  1.2844296455134E+00 -1.2636492947244E-01
    65  6.4000000000000E-01  1.2801558750284E+00 -1.0201308699031E-01
    66  6.5000000000000E-01  1.2747680473944E+00 -7.6557313939341E-02
    67  6.6000000000000E-01  1.2682878300762E+00 -5.0088409414840E-02
    68  6.7000000000000E-01  1.2607415541079E+00 -2.2706072464521E-02
    69  6.8000000000000E-01  1.2521599570725E+00  5.4822207499826E-03
    70  6.9000000000000E-01  1.2425778666649E+00  3.4362474472165E-02
    71  7.0000000000000E-01  1.2320338290849E+00  6.3815548705543E-02
    72  7.1000000000000E-01  1.2205696873888E+00  9.3718633418486E-02
    73  7.2000000000000E-01  1.2082301157293E+00  1.2394680073442E-01
    74  7.3000000000000E-01  1.1950621161397E+00  1.5437461265965E-01
    75  7.4000000000000E-01  1.1811144851395E+00  1.8487776064301E-01
    76  7.5000000000000E-01  1.1664372579597E+00  2.1533471235082E-01
    77  7.6000000000000E-01  1.1510811385893E+00  2.4562834049883E-01
    78  7.7000000000000E-01  1.1350969241258E+00  2.7564750841968E-01
    79  7.8000000000000E-01  1.1185349320679E+00  3.0528858727249E-01
    80  7.9000000000000E-01  1.1014444392111E+00  3.3445688041657E-01
    81  8.0000000000000E-01  1.0838731407005E+00  3.6306793147597E-01
    82  8.1000000000000E-01  1.0658666375563E+00  3.9104869399950E-01
    83  8.2000000000000E-01  1.0474679606192E+00  4.1833854236121E-01
    84  8.3000000000000E-01  1.0287171383742E+00  4.4489010562320E-01
    85  8.4000000000000E-01  1.0096508155006E+00  4.7066990847159E-01
    86  8.5000000000000E-01  9.9030192828287E-01  4.9565880600411E-01
    87  8.6000000000000E-01  9.7069944219824E-01  5.1985220205698E-01
    88  8.7000000000000E-01  9.5086815609821E-01  5.4326004386972E-01
    89  8.8000000000000E-01  9.3082857642194E-01  5.6590658915262E-01
    90  8.9000000000000E-01  9.1059686384542E-01  5.8782994499864E-01
    91  9.0000000000000E-01  8.9018485368917E-01  6.0908138151531E-01
    92  9.1000000000000E-01  8.6960015029809E-01  6.2972442649677E-01
    93  9.2000000000000E-01  8.4884629448578E-01  6.4983375085534E-01
    94  9.3000000000000E-01  8.2792300201928E-01  6.6949385783675E-01
    95  9.4000000000000E-01  8.0682647002493E-01  6.8879759220064E-01
    96  9.5000000000000E-01  7.8554974713868E-01  7.0784448851215E-01
    97  9.6000000000000E-01  7.6408316222164E-01  7.2673898040878E-01
    98  9.7000000000000E-01  7.4241480552778E-01  7.4558849514252E-01
    99  9.8000000000000E-01  7.2053105536108E-01  7.6450145980400E-01
   100  9.9000000000000E-01  6.9841714250738E-01  7.8358524738273E-01
   101  1.0000000000000E+00  6.7605774408226E-01  8.0294409217095E-01
   102  1.0100000000000E+00  6.5343759791245E-01  8.2267700495672E-01
   103  1.0200000000000E+00  6.3054212817226E-01  8.4287571895236E-01
   104  1.0300000000000E+00  6.0735807273435E-01  8.6362269745791E-01
   105  1.0400000000000E+00  5.8387410257268E-01  8.8498923385546E-01
   106  1.0500000000000E+00  5.6008142357455E-01  9.0703367367578E-01
   107  1.0600000000000E+00  5.3597435128146E-01  9.2979978717337E-01
   108  1.0700000000000E+00  5.1155084938189E-01  9.5331531910985E-01
   109  1.0800000000000E+00  4.8681302321947E-01  9.7759074029930E-01
   110  1.0900000000000E+00  4.6176756015364E-01  1.0026182229299E+00
   111  1.1000000000000E+00  4.3642610930495E-01  1.0283708587959E+00
   112  1.1100000000000E+00  4.1080559402978E-01  1.0548021363656E+00
   113  1.1200000000000E+00  3.8492845138195E-01  1.0818456891467E+00
   114  1.1300000000000E+00  3.5882279382429E-01  1.1094153241070E+00
   115  1.1400000000000E+00  3.3252248953254E-01  1.1374053350505E+00
   116  1.1500000000000E+00  3.0606715877585E-01  1.1656911018557E+00
   117  1.1600000000000E+00  2.7950208504180E-01  1.1941299724494E+00
   118  1.1700000000000E+00  2.5287804078757E-01  1.2225624203298E+00
   119  1.1800000000000E+00  2.2625102891692E-01  1.2508134664789E+00
   120  1.1900000000000E+00  1.9968194230006E-01  1.2786943506093E+00
   121  1.2000000000000E+00  1.7323614483366E-01  1.3060044330085E+00
   122  1.2100000000000E+00  1.4698297868744E-01  1.3325333047470E+00
   123  1.2200000000000E+00  1.2099520346066E-01  1.3580630808354E+00
   124  1.2300000000000E+00  9.5348373980240E-02  1.3823708480373E+00
   125  1.2400000000000E+00  7.0120164386637E-02  1.4052312365483E+00
   126  1.2500000000000E+00  4.5389646959807E-02  1.4264190826730E+00
   127  1.2600000000000E+00  2.1236534833377E-02  1.4457121479794E+00
   128  1.2700000000000E+00 -2.2596016936445E-03  1.4628938592509E+00
   129  1.2800000000000E+00 -2.5020135109091E-02  1.4777560328729E+00
   130  1.2900000000000E+00 -4.6968186479646E-02  1.4901015471239E+00
   131  1.3000000000000E+00 -6.8029426521345E-02  1.4997469261828E+00
   132  1.3100000000000E+00 -8.8132861397952E-02  1.5065248005127E+00
   133  1.3200000000000E+00 -1.0721159285849E-01  1.5102862096440E+00
   134  1.3300000000000E+00 -1.2520354263445E-01  1.5109027152199E+00
   135  1.3400000000000E+00 -1.4205213146851E-01  1.5082682944697E+00
   136  1.3500000000000E+00 -1.5770690373696E-01  1.5023009870230E+00
   137  1.3600000000000E+00 -1.7212408934615E-01  1.4929442711124E+00
   138  1.3700000000000E+00 -1.8526709542065E-01  1.4801681487121E+00
   139  1.3800000000000E+00 -1.9710692124070E-01  1.4639699229483E+00
   140  1.3900000000000E+00 -2.0762249092575E-01  1.4443746551893E+00
   141  1.4000000000000E+00 -2.1680089947264E-01  1.4214352934735E+00
   142  1.4100000000000E+00 -2.2463756893161E-01  1.3952324683252E+00
   143  1.4200000000000E+00 -2.3113631272465E-01  1.3658739564912E+00
   144  1.4300000000000E+00 -2.3630930735217E-01  1.3334938175998E+00
   145  1.4400000000000E+00 -2.4017697199553E-01  1.2982512132049E+00
   146  1.4500000000000E+00 -2.4276775776327E-01  1.2603289219857E+00
   147  1.4600000000000E+00 -2.4411784954805E-01  1.2199315690274E+00
   148  1.4700000000000E+00 -2.4427078463342E-01  1.1772835910234E+00
   149  1.4800000000000E+00 -2.4327699329962E-01  1.1326269628624E+00
   150  1.4900000000000E+00 -2.4119326770634E-01  1.0862187143372E+00
   151  1.5000000000000E+00 -2.3808216627240E-01  1.0383282686110E+00
   152  1.5100000000000E+00 -2.3401136159912E-01  9.8923463651565E-01
   153  1.5200000000000E+00 -2.2905294069818E-01  9.3922350274796E-01
   154  1.5300000000000E+00 -2.2328266686684E-01  8.8858424150261E-01
   155  1.5400000000000E+00 -2.1677921299943E-01  8.3760690004471E-01
   156  1.5500000000000E+00 -2.0962337642646E-01  7.8657918914026E-01
   157  1.5600000000000E+00 -2.0189728552729E-01  7.3578351913813E-01
   158  1.5700000000000E+00 -1.9368360836846E-01  6.8549411982621E-01
   159  1.5800000000000E+00 -1.8506477347684E-01  6.3597428097867E-01
   160  1.5900000000000E+00 -1.7612221256738E-01  5.8747374878027E-01
   161  1.6000000000000E+00 -1.6693563461493E-01  5.4022631109175E-01
   162  1.6100000000000E+00 -1.5758234009503E-01  4.9444760182992E-01
   163  1.6200000000000E+00 -1.4813658352683E-01  4.5033315160873E-01
   164  1.6300000000000E+00 -1.3866899165513E-01  4.0805670835855E-01
   165  1.6400000000000E+00 -1.2924604364261E-01  3.6776884730362E-01
   166  1.6500000000000E+00 -1.1992961914266E-01  3.2959588972835E-01
   167  1.6600000000000E+00 -1.1077661809242E-01  2.9363913750940E-01
   168  1.6700000000000E+00 -1.0183866604405E-01  2.5997451667673E-01
   169  1.6800000000000E+00 -9.3161910761775E-02  2.2865265170098E-01
   170  1.6900000000000E+00 -8.4786900628182E-02  1.9969927295986E-01
   171  1.7000000000000E+00 -7.6748543041054E-02  1.7311593943605E-01
   172  1.7100000000000E+00 -6.9076140529016E-02  1.4888106086328E-01
   173  1.7200000000000E+00 -6.1793501562296E-02  1.2695120269270E-01
   174  1.7300000000000E+00 -5.4919121964822E-02  1.0726265331023E-01
   175  1.7400000000000E+00 -4.8466431849301E-02  8.9733229418288E-02
   176  1.7500000000000E+00 -4.2444102082347E-02  7.4264292192894E-02
   177  1.7600000000000E+00 -3.6856403479576E-02  6.0742943997062E-02
   178  1.7700000000000E+00 -3.1703611208039E-02  4.9044372842817E-02
   179  1.7800000000000E+00 -2.6982445107572E-02  3.9034306180795E-02
   180  1.7900000000000E+00 -2.2686547609069E-02  3.0571569643892E-02
   181  1.8000000000000E+00 -1.8806953246866E-02  2.3510597165990E-02
   182  1.8100000000000E+00 -1.5332610327780E-02  1.7704073551473E-02
   183  1.8200000000000E+00 -1.2251654916190E-02  1.3007882772989E-02
   184  1.8300000000000E+00 -9.5541527291566E-03  9.2905143407358E-03
   185  1.8400000000000E+00 -7.2256491330109E-03  6.4138321252849E-03
   186  1.8500000000000E+00 -5.2501824287665E-03  4.2433771155093E-03
   187  1.8600000000000E+00 -3.6121602605936E-03  2.6549528720699E-03
   188  1.8700000000000E+00 -2.2965790069507E-03  1.5359290978687E-03
   189  1.8800000000000E+00 -1.2897516348592E-03  7.8724207118781E-04
   190  1.8900000000000E+00 -5.7693351917393E-04  3.2363138310016E-04
   191  1.9000000000000E+00 -1.5280508912374E-04  7.9678635692456E-05
   192  1.9100000000000E+00 -2.9381446988266E-06  1.7787924941524E-06
   193  1.9200000000000E+00  3.2325754545577E-06 -1.4432097527733E-06
   194  1.9300000000000E+00 -1.9626317793995E-06  9.2783940141545E-07
   195  1.9400  0. -0.
   196  1.9500  0. -0.
   197  1.9600  0.  0.
   198  1.9700  0.  0.
   199  1.9800  0.  0.
   200  1.9900  0.  0.
   201  2.0000  0.  0.
   202  2.0100  0.  0.
   203  2.0200  0.  0.
   204  2.0300  0.  0.
   205  2.0400  0.  0.
   206  2.0500  0.  0.
   207  2.0600  0.  0.
   208  2.0700  0.  0.
   209  2.0800  0.  0.
   210  2.0900  0.  0.
   211  2.1000  0.  0.
   212  2.1100  0.  0.
   213  2.1200  0.  0.
   214  2.1300  0.  0.
   215  2.1400  0.  0.
   216  2.1500  0.  0.
   217  2.1600  0.  0.
   218  2.1700  0.  0.
   219  2.1800  0.  0.
   220  2.1900  0.  0.
   221  2.2000  0.  0.
   222  2.2100  0.  0.
   223  2.2200  0.  0.
   224  2.2300  0.  0.
   225  2.2400  0.  0.
   226  2.2500  0.  0.
   227  2.2600  0.  0.
   228  2.2700  0.  0.
   229  2.2800  0.  0.
   230  2.2900  0.  0.
   231  2.3000  0.  0.
   232  2.3100  0.  0.
   233  2.3200  0.  0.
   234  2.3300  0.  0.
   235  2.3400  0.  0.
   236  2.3500  0.  0.
   237  2.3600  0.  0.
   238  2.3700  0.  0.
   239  2.3800  0.  0.
   240  2.3900  0.  0.
   241  2.4000  0.  0.
   242  2.4100  0.  0.
   243  2.4200  0.  0.
   244  2.4300  0.  0.
   245  2.4400  0.  0.
   246  2.4500  0.  0.
   247  2.4600  0.  0.
   248  2.4700  0.  0.
   249  2.4800  0.  0.
   250  2.4900  0.  0.
   251  2.5000  0.  0.
   252  2.5100  0.  0.
   253  2.5200  0.  0.
   254  2.5300  0.  0.
   255  2.5400  0.  0.
   256  2.5500  0.  0.
   257  2.5600  0.  0.
   258  2.5700  0.  0.
   259  2.5800  0.  0.
   260  2.5900  0.  0.
   261  2.6000  0.  0.
   262  2.6100  0.  0.
   263  2.6200  0.  0.
   264  2.6300  0.  0.
   265  2.6400  0.  0.
   266  2.6500  0.  0.
   267  2.6600  0.  0.
   268  2.6700  0.  0.
   269  2.6800  0.  0.
   270  2.6900  0.  0.
   271  2.7000  0.  0.
   272  2.7100  0.  0.
   273  2.7200  0.  0.
   274  2.7300  0.  0.
   275  2.7400  0.  0.
   276  2.7500  0.  0.
   277  2.7600  0.  0.
   278  2.7700  0.  0.
   279  2.7800  0.  0.
   280  2.7900  0.  0.
   281  2.8000  0.  0.
   282  2.8100  0.  0.
   283  2.8200  0.  0.
   284  2.8300  0.  0.
   285  2.8400  0.  0.
   286  2.8500  0.  0.
   287  2.8600  0.  0.
   288  2.8700  0.  0.
   289  2.8800  0.  0.
   290  2.8900  0.  0.
   291  2.9000  0.  0.
   292  2.9100  0.  0.
   293  2.9200  0.  0.
   294  2.9300  0.  0.
   295  2.9400  0.  0.
   296  2.9500  0.  0.
   297  2.9600  0.  0.
   298  2.9700  0.  0.
   299  2.9800  0.  0.
   300  2.9900  0.  0.
   301  3.0000  0.  0.
   302  3.0100  0.  0.
   303  3.0200  0.  0.
   304  3.0300  0.  0.
   305  3.0400  0.  0.
   306  3.0500  0.  0.
   307  3.0600  0.  0.
   308  3.0700  0.  0.
   309  3.0800  0.  0.
   310  3.0900  0.  0.
   311  3.1000  0.  0.
   312  3.1100  0.  0.
   313  3.1200  0.  0.
   314  3.1300  0.  0.
   315  3.1400  0.  0.
   316  3.1500  0.  0.
   317  3.1600  0.  0.
   318  3.1700  0.  0.
   319  3.1800  0.  0.
   320  3.1900  0.  0.
   321  3.2000  0.  0.
   322  3.2100  0.  0.
   323  3.2200  0.  0.
   324  3.2300  0.  0.
   325  3.2400  0.  0.
   326  3.2500  0.  0.
   327  3.2600  0.  0.
   328  3.2700  0.  0.
   329  3.2800  0.  0.
   330  3.2900  0.  0.
   331  3.3000  0.  0.
   332  3.3100  0.  0.
   333  3.3200  0.  0.
   334  3.3300  0.  0.
   335  3.3400  0.  0.
   336  3.3500  0.  0.
   337  3.3600  0.  0.
   338  3.3700  0.  0.
   339  3.3800  0.  0.
   340  3.3900  0.  0.
   341  3.4000  0.  0.
   342  3.4100  0.  0.
   343  3.4200  0.  0.
   344  3.4300  0.  0.
   345  3.4400  0.  0.
   346  3.4500  0.  0.
   347  3.4600  0.  0.
   348  3.4700  0.  0.
   349  3.4800  0.  0.
   350  3.4900  0.  0.
   351  3.5000  0.  0.
   352  3.5100  0.  0.
   353  3.5200  0.  0.
   354  3.5300  0.  0.
   355  3.5400  0.  0.
   356  3.5500  0.  0.
   357  3.5600  0.  0.
   358  3.5700  0.  0.
   359  3.5800  0.  0.
   360  3.5900  0.  0.
   361  3.6000  0.  0.
   362  3.6100  0.  0.
   363  3.6200  0.  0.
   364  3.6300  0.  0.
   365  3.6400  0.  0.
   366  3.6500  0.  0.
   367  3.6600  0.  0.
   368  3.6700  0.  0.
   369  3.6800  0.  0.
   370  3.6900  0.  0.
   371  3.7000  0.  0.
   372  3.7100  0.  0.
   373  3.7200  0.  0.
   374  3.7300  0.  0.
   375  3.7400  0.  0.
   376  3.7500  0.  0.
   377  3.7600  0.  0.
   378  3.7700  0.  0.
   379  3.7800  0.  0.
   380  3.7900  0.  0.
   381  3.8000  0.  0.
   382  3.8100  0.  0.
   383  3.8200  0.  0.
   384  3.8300  0.  0.
   385  3.8400  0.  0.
   386  3.8500  0.  0.
   387  3.8600  0.  0.
   388  3.8700  0.  0.
   389  3.8800  0.  0.
   390  3.8900  0.  0.
   391  3.9000  0.  0.
   392  3.9100  0.  0.
   393  3.9200  0.  0.
   394  3.9300  0.  0.
   395  3.9400  0.  0.
   396  3.9500  0.  0.
   397  3.9600  0.  0.
   398  3.9700  0.  0.
   399  3.9800  0.  0.
   400  3.9900  0.  0.
   401  4.0000  0.  0.
   402  4.0100  0.  0.
   403  4.0200  0.  0.
   404  4.0300  0.  0.
   405  4.0400  0.  0.
   406  4.0500  0.  0.
   407  4.0600  0.  0.
   408  4.0700  0.  0.
   409  4.0800  0.  0.
   410  4.0900  0.  0.
   411  4.1000  0.  0.
   412  4.1100  0.  0.
   413  4.1200  0.  0.
   414  4.1300  0.  0.
   415  4.1400  0.  0.
   416  4.1500  0.  0.
   417  4.1600  0.  0.
   418  4.1700  0.  0.
   419  4.1800  0.  0.
   420  4.1900  0.  0.
   421  4.2000  0.  0.
   422  4.2100  0.  0.
   423  4.2200  0.  0.
   424  4.2300  0.  0.
   425  4.2400  0.  0.
   426  4.2500  0.  0.
   427  4.2600  0.  0.
   428  4.2700  0.  0.
   429  4.2800  0.  0.
   430  4.2900  0.  0.
   431  4.3000  0.  0.
   432  4.3100  0.  0.
   433  4.3200  0.  0.
   434  4.3300  0.  0.
   435  4.3400  0.  0.
   436  4.3500  0.  0.
   437  4.3600  0.  0.
   438  4.3700  0.  0.
   439  4.3800  0.  0.
   440  4.3900  0.  0.
   441  4.4000  0.  0.
   442  4.4100  0.  0.
   443  4.4200  0.  0.
   444  4.4300  0.  0.
   445  4.4400  0.  0.
   446  4.4500  0.  0.
   447  4.4600  0.  0.
   448  4.4700  0.  0.
   449  4.4800  0.  0.
   450  4.4900  0.  0.
   451  4.5000  0.  0.
   452  4.5100  0.  0.
   453  4.5200  0.  0.
   454  4.5300  0.  0.
   455  4.5400  0.  0.
   456  4.5500  0.  0.
   457  4.5600  0.  0.
   458  4.5700  0.  0.
   459  4.5800  0.  0.
   460  4.5900  0.  0.
   461  4.6000  0.  0.
   462  4.6100  0.  0.
   463  4.6200  0.  0.
   464  4.6300  0.  0.
   465  4.6400  0.  0.
   466  4.6500  0.  0.
   467  4.6600  0.  0.
   468  4.6700  0.  0.
   469  4.6800  0.  0.
   470  4.6900  0.  0.
   471  4.7000  0.  0.
   472  4.7100  0.  0.
   473  4.7200  0.  0.
   474  4.7300  0.  0.
   475  4.7400  0.  0.
   476  4.7500  0.  0.
   477  4.7600  0.  0.
   478  4.7700  0.  0.
   479  4.7800  0.  0.
   480  4.7900  0.  0.
   481  4.8000  0.  0.
   482  4.8100  0.  0.
   483  4.8200  0.  0.
   484  4.8300  0.  0.
   485  4.8400  0.  0.
   486  4.8500  0.  0.
   487  4.8600  0.  0.
   488  4.8700  0.  0.
   489  4.8800  0.  0.
   490  4.8900  0.  0.
   491  4.9000  0.  0.
   492  4.9100  0.  0.
   493  4.9200  0.  0.
   494  4.9300  0.  0.
   495  4.9400  0.  0.
   496  4.9500  0.  0.
   497  4.9600  0.  0.
   498  4.9700  0.  0.
   499  4.9800  0.  0.
   500  4.9900  0.  0.
   501  5.0000  0.  0.
   502  5.0100  0.  0.
   503  5.0200  0.  0.
   504  5.0300  0.  0.
   505  5.0400  0.  0.
   506  5.0500  0.  0.
   507  5.0600  0.  0.
   508  5.0700  0.  0.
   509  5.0800  0.  0.
   510  5.0900  0.  0.
   511  5.1000  0.  0.
   512  5.1100  0.  0.
   513  5.1200  0.  0.
   514  5.1300  0.  0.
   515  5.1400  0.  0.
   516  5.1500  0.  0.
   517  5.1600  0.  0.
   518  5.1700  0.  0.
   519  5.1800  0.  0.
   520  5.1900  0.  0.
   521  5.2000  0.  0.
   522  5.2100  0.  0.
   523  5.2200  0.  0.
   524  5.2300  0.  0.
   525  5.2400  0.  0.
   526  5.2500  0.  0.
   527  5.2600  0.  0.
   528  5.2700  0.  0.
   529  5.2800  0.  0.
   530  5.2900  0.  0.
   531  5.3000  0.  0.
   532  5.3100  0.  0.
   533  5.3200  0.  0.
   534  5.3300  0.  0.
   535  5.3400  0.  0.
   536  5.3500  0.  0.
   537  5.3600  0.  0.
   538  5.3700  0.  0.
   539  5.3800  0.  0.
   540  5.3900  0.  0.
   541  5.4000  0.  0.
   542  5.4100  0.  0.
   543  5.4200  0.  0.
   544  5.4300  0.  0.
   545  5.4400  0.  0.
   546  5.4500  0.  0.
   547  5.4600  0.  0.
   548  5.4700  0.  0.
   549  5.4800  0.  0.
   550  5.4900  0.  0.
   551  5.5000  0.  0.
   552  5.5100  0.  0.
   553  5.5200  0.  0.
   554  5.5300  0.  0.
   555  5.5400  0.  0.
   556  5.5500  0.  0.
   557  5.5600  0.  0.
   558  5.5700  0.  0.
   559  5.5800  0.  0.
   560  5.5900  0.  0.
   561  5.6000  0.  0.
   562  5.6100  0.  0.
   563  5.6200  0.  0.
   564  5.6300  0.  0.
   565  5.6400  0.  0.
   566  5.6500  0.  0.
   567  5.6600  0.  0.
   568  5.6700  0.  0.
   569  5.6800  0.  0.
   570  5.6900  0.  0.
   571  5.7000  0.  0.
   572  5.7100  0.  0.
   573  5.7200  0.  0.
   574  5.7300  0.  0.
   575  5.7400  0.  0.
   576  5.7500  0.  0.
   577  5.7600  0.  0.
   578  5.7700  0.  0.
   579  5.7800  0.  0.
   580  5.7900  0.  0.
   581  5.8000  0.  0.
   582  5.8100  0.  0.
   583  5.8200  0.  0.
   584  5.8300  0.  0.
   585  5.8400  0.  0.
   586  5.8500  0.  0.
   587  5.8600  0.  0.
   588  5.8700  0.  0.
   589  5.8800  0.  0.
   590  5.8900  0.  0.
   591  5.9000  0.  0.
   592  5.9100  0.  0.
   593  5.9200  0.  0.
   594  5.9300  0.  0.
   595  5.9400  0.  0.
   596  5.9500  0.  0.
   597  5.9600  0.  0.
   598  5.9700  0.  0.
   599  5.9800  0.  0.
   600  5.9900  0.  0.
   1                         1.9011499611899E+00  3.1375714861539E-01
     1  0.0000000000000E+00 -2.9758085188722E-10  5.7534088604427E-10
     2  1.0000000000000E-02  2.6237826971351E-05  6.0122256332570E-04
     3  2.0000000000000E-02  1.0710511430257E-04  2.4003061501894E-03
     4  3.0000000000000E-02  2.4904432222047E-04  5.3835346630518E-03
     5  4.0000000000000E-02  4.6272984792807E-04  9.5281683351371E-03
     6  5.0000000000000E-02  7.6297403017285E-04  1.4802623241305E-02
     7  6.0000000000000E-02  1.1685966691226E-03  2.1166720457874E-02
     8  7.0000000000000E-02  1.7022591629897E-03  2.8572002739665E-02
     9  8.0000000000000E-02  2.3902646604250E-03  3.6962116007205E-02
    10  9.0000000000000E-02  3.2623259126863E-03  4.6273252386436E-02
    11  1.0000000000000E-01  4.3513027794726E-03  5.6434651022440E-02
    12  1.1000000000000E-01  5.6929115945300E-03  6.7369152402560E-02
    13  1.2000000000000E-01  7.3254088295937E-03  7.8993801477107E-02
    14  1.3000000000000E-01  9.2892517057925E-03  9.1220494461677E-02
    15  1.4000000000000E-01  1.1626738588403E-02  1.0395666384770E-01
    16  1.5000000000000E-01  1.4381632162303E-02  1.1710599584027E-01
    17  1.6000000000000E-01  1.7598768520045E-02  1.3056917418741E-01
    18  1.7000000000000E-01  2.1323655401202E-02  1.4424464416488E-01
    19  1.8000000000000E-01  2.5602062899443E-02  1.5802939033723E-01
    20  1.9000000000000E-01  3.0479610002266E-02  1.7181972162999E-01
    21  2.0000000000000E-01  3.6001350346896E-02  1.8551205722076E-01
    22  2.1000000000000E-01  4.2211360564652E-02  1.9900370678802E-01
    23  2.2000000000000E-01  4.9152334545174E-02  2.1219363874581E-01
    24  2.3000000000000E-01  5.6865186881931E-02  2.2498323023865E-01
    25  2.4000000000000E-01  6.5388668661930E-02  2.3727699287275E-01
    26  2.5000000000000E-01  7.4758998636796E-02  2.4898326841464E-01
    27  2.6000000000000E-01  8.5009512660482E-02  2.6001488899442E-01
    28  2.7000000000000E-01  9.6170334102356E-02  2.7028979670435E-01
    29  2.8000000000000E-01  1.0826806774515E-01  2.7973161788156E-01
    30  2.9000000000000E-01  1.2132551945697E-01  2.8827018780209E-01
    31  3.0000000000000E-01  1.3536144368777E-01  2.9584202198771E-01
    32  3.1000000000000E-01  1.5039032058507E-01  3.0239073083318E-01
    33  3.2000000000000E-01  1.6642216425470E-01  3.0786737479366E-01
    34  3.3000000000000E-01  1.8346236341130E-01  3.1223075792633E-01
    35  3.4000000000000E-01  2.0151155537418E-01  3.1544765814983E-01
    36  3.5000000000000E-01  2.2056553406854E-01  3.1749299316584E-01
    37  3.6000000000000E-01  2.4061519239385E-01  3.1834992157265E-01
    38  3.7000000000000E-01  2.6164649902202E-01  3.1800987928541E-01
    39  3.8000000000000E-01  2.8364050939217E-01  3.1647255195656E-01
    40  3.9000000000000E-01  3.0657341037737E-01  3.1374578465710E-01
    41  4.0000000000000E-01  3.3041659781595E-01  3.0984543062901E-01
    42  4.1000000000000E-01  3.5513678582764E-01  3.0479514144727E-01
    43  4.2000000000000E-01  3.8069614657535E-01  2.9862610142996E-01
    44  4.3000000000000E-01  4.0705247889011E-01  2.9137670960373E-01
    45  4.4000000000000E-01  4.3415940395039E-01  2.8309221296382E-01
    46  4.5000000000000E-01  4.6196658600107E-01  2.7382429515990E-01
    47  4.6000000000000E-01  4.9041997591282E-01  2.6363062508678E-01
    48  4.7000000000000E-01  5.1946207522145E-01  2.5257437015992E-01
    49  4.8000000000000E-01  5.4903221814999E-01  2.4072367930678E-01
    50  4.9000000000000E-01  5.7906686900543E-01  2.2815114090431E-01
    51  5.0000000000000E-01  6.0949993225817E-01  2.1493322103807E-01
    52  5.1000000000000E-01  6.4026307255455E-01  2.0114968754982E-01
    53  5.2000000000000E-01  6.7128604188420E-01  1.8688302537546E-01
    54  5.3000000000000E-01  7.0249701112157E-01  1.7221784865549E-01
    55  5.4000000000000E-01  7.3382290318700E-01  1.5724031502562E-01
    56  5.5000000000000E-01  7.6518972512511E-01  1.4203754736650E-01
    57  5.6000000000000E-01  7.9652289647717E-01  1.2669706811117E-01
    58  5.7000000000000E-01  8.2774757142782E-01  1.1130625097828E-01
    59  5.8000000000000E-01  8.5878895233441E-01  9.5951794720904E-02
    60  5.9000000000000E-01  8.8957259239741E-01  8.0719223159147E-02
    61  6.0000000000000E-01  9.2002468540083E-01  6.5692415401234E-02
    62  6.1000000000000E-01  9.5007234064134E-01  5.0953169758648E-02
    63  6.2000000000000E-01  9.7964384137058E-01  3.6580804428611E-02
    64  6.3000000000000E-01  1.0086688852955E+00  2.2651797557419E-02
    65  6.4000000000000E-01  1.0370788059137E+00  9.2394688157621E-03
    66  6.5000000000000E-01  1.0648067737019E+00 -3.5862958833019E-03
    67  6.6000000000000E-01  1.0917879764247E+00 -1.5759275405333E-02
    68  6.7000000000000E-01  1.1179597780807E+00 -2.7217099555451E-02
    69  6.8000000000000E-01  1.1432618562595E+00 -3.7901390300872E-02
    70  6.9000000000000E-01  1.1676363179311E+00 -4.7757858492749E-02
    71  7.0000000000000E-01  1.1910277939406E+00 -5.6736357031714E-02
    72  7.1000000000000E-01  1.2133835127172E+00 -6.4790891912583E-02
    73  7.2000000000000E-01  1.2346533539425E+00 -7.1879593054520E-02
    74  7.3000000000000E-01  1.2547898831372E+00 -7.7964647268156E-02
    75  7.4000000000000E-01  1.2737483683333E+00 -8.3012196125965E-02
    76  7.5000000000000E-01  1.2914867801849E+00 -8.6992201882399E-02
    77  7.6000000000000E-01  1.3079657770412E+00 -8.9878284931184E-02
    78  7.7000000000000E-01  1.3231486766521E+00 -9.1647536585834E-02
    79  7.8000000000000E-01  1.3370014163053E+00 -9.2280311221869E-02
    80  7.9000000000000E-01  1.3494925032954E+00 -9.1760002022872E-02
    81  8.0000000000000E-01  1.3605929577041E+00 -9.0072804725319E-02
    82  8.1000000000000E-01  1.3702762495238E+00 -8.7207473857028E-02
    83  8.2000000000000E-01  1.3785182321815E+00 -8.3155076009671E-02
    84  8.3000000000000E-01  1.3852970745227E+00 -7.7908744677219E-02
    85  8.4000000000000E-01  1.3905931932848E+00 -7.1463441128281E-02
    86  8.5000000000000E-01  1.3943891880399E+00 -6.3815725662780E-02
    87  8.6000000000000E-01  1.3966697805064E+00 -5.4963543432002E-02
    88  8.7000000000000E-01  1.3974217600244E+00 -4.4906028778990E-02
    89  8.8000000000000E-01  1.3966339368639E+00 -3.3643331784154E-02
    90  8.9000000000000E-01  1.3942971048845E+00 -2.1176470382942E-02
    91  9.0000000000000E-01  1.3904040148925E+00 -7.5072110608792E-03
    92  9.1000000000000E-01  1.3849493598536E+00  7.3620192697342E-03
    93  9.2000000000000E-01  1.3779297729110E+00  2.3428188043266E-02
    94  9.3000000000000E-01  1.3693438389370E+00  4.0687676763133E-02