P     ONCVPSP-4.0.1  r_core=   1.80468   1.80468   1.90450
     15.0000      5.0000      211017    zatom,zion,pspd
     8      11   2     4   600     0    pspcod,pspxc,lmax,lloc,mmax,r2well
  5.99000000  5.00000000  0.00000000    rchrg fchrg qchrg
     2     2     2     0     0    nproj
     1     1           extension_switch
   0                         6.0577085368550E+00  4.9274424569037E-01
     1  0.0000000000000E+00 -3.5111080709527E-11  1.8423967906855E-10
     2  1.0000000000000E-02  3.8930510939851E-02 -2.3613070989152E-02
     3  2.0000000000000E-02  7.7826924183309E-02 -4.7160065300023E-02
     4  3.0000000000000E-02  1.1665520364251E-01 -7.0575263093528E-02
     5  4.0000000000000E-02  1.5538143581908E-01 -9.3793654329485E-02
     6  5.0000000000000E-02  1.9397188953889E-01 -1.1675128401485E-01
     7  6.0000000000000E-02  2.3239307384034E-01 -1.3938558600284E-01
     8  7.0000000000000E-02  2.7061179344211E-01 -1.6163570174550E-01
     9  8.0000000000000E-02  3.0859520125201E-01 -1.8344278058644E-01
    10  9.0000000000000E-02  3.4631084742105E-01 -2.0475025840642E-01
    11  1.0000000000000E-01  3.8372672449738E-01 -2.2550411169964E-01
    12  1.1000000000000E-01  4.2081130829164E-01 -2.4565308445948E-01
    13  1.2000000000000E-01  4.5753359412790E-01 -2.6514888558536E-01
    14  1.3000000000000E-01  4.9386312822224E-01 -2.8394635488384E-01
    15  1.4000000000000E-01  5.2977003400291E-01 -3.0200359612187E-01
    16  1.5000000000000E-01  5.6522503326083E-01 -3.1928207599392E-01
    17  1.6000000000000E-01  6.0019946209649E-01 -3.3574668828312E-01
    18  1.7000000000000E-01  6.3466528170726E-01 -3.5136578292315E-01
    19  1.8000000000000E-01  6.6859508413725E-01 -3.6611116009890E-01
    20  1.9000000000000E-01  7.0196209318887E-01 -3.7995802995275E-01
    21  2.0000000000000E-01  7.3474016077003E-01 -3.9288493888652E-01
    22  2.1000000000000E-01  7.6690375902254E-01 -4.0487366385919E-01
    23  2.2000000000000E-01  7.9842796864457E-01 -4.1590907647478E-01
    24  2.3000000000000E-01  8.2928846388221E-01 -4.2597897902630E-01
    25  2.4000000000000E-01  8.5946149472149E-01 -4.3507391500740E-01
    26  2.5000000000000E-01  8.8892386686098E-01 -4.4318695691820E-01
    27  2.6000000000000E-01  9.1765292008720E-01 -4.5031347447225E-01
    28  2.7000000000000E-01  9.4562650570792E-01 -4.5645088655348E-01
    29  2.8000000000000E-01  9.7282296372318E-01 -4.6159840047389E-01
    30  2.9000000000000E-01  9.9922110042893E-01 -4.6575674223943E-01
    31  3.0000000000000E-01  1.0248001671542E+00 -4.6892788164471E-01
    32  3.1000000000000E-01  1.0495398408284E+00 -4.7111475608081E-01
    33  3.2000000000000E-01  1.0734202070612E+00 -4.7232099695833E-01
    34  3.3000000000000E-01  1.0964217463955E+00 -4.7255066261609E-01
    35  3.4000000000000E-01  1.1185253243585E+00 -4.7180798150646E-01
    36  3.5000000000000E-01  1.1397121858958E+00 -4.7009710932177E-01
    37  3.6000000000000E-01  1.1599639547211E+00 -4.6742190355406E-01
    38  3.7000000000000E-01  1.1792626380560E+00 -4.6378571876386E-01
    39  3.8000000000000E-01  1.1975906371659E+00 -4.5919122557720E-01
    40  3.9000000000000E-01  1.2149307640266E+00 -4.5364025613333E-01
    41  4.0000000000000E-01  1.2312662643743E+00 -4.4713367837602E-01
    42  4.1000000000000E-01  1.2465808473103E+00 -4.3967130122017E-01
    43  4.2000000000000E-01  1.2608587215396E+00 -4.3125181223677E-01
    44  4.3000000000000E-01  1.2740846382351E+00 -4.2187274909084E-01
    45  4.4000000000000E-01  1.2862439404228E+00 -4.1153050553893E-01
    46  4.5000000000000E-01  1.2973226186926E+00 -4.0022037235524E-01
    47  4.6000000000000E-01  1.3073073729434E+00 -3.8793661310898E-01
    48  4.7000000000000E-01  1.3161856797832E+00 -3.7467257426981E-01
    49  4.8000000000000E-01  1.3239458651132E+00 -3.6042082867504E-01
    50  4.9000000000000E-01  1.3305771813424E+00 -3.4517335095905E-01
    51  5.0000000000000E-01  1.3360698886007E+00 -3.2892172312722E-01
    52  5.1000000000000E-01  1.3404153392426E+00 -3.1165736805722E-01
    53  5.2000000000000E-01  1.3436060648714E+00 -2.9337180833635E-01
    54  5.3000000000000E-01  1.3456358650523E+00 -2.7405694749861E-01
    55  5.4000000000000E-01  1.3464998968377E+00 -2.5370537041258E-01
    56  5.5000000000000E-01  1.3461947641840E+00 -2.3231065929696E-01
    57  5.6000000000000E-01  1.3447186063150E+00 -2.0986772160573E-01
    58  5.7000000000000E-01  1.3420711840626E+00 -1.8637312583406E-01
    59  5.8000000000000E-01  1.3382539632136E+00 -1.6182544115107E-01
    60  5.9000000000000E-01  1.3332701938894E+00 -1.3622557666713E-01
    61  6.0000000000000E-01  1.3271249850033E+00 -1.0957711609564E-01
    62  6.1000000000000E-01  1.3198253728647E+00 -8.1886643568868E-02
    63  6.2000000000000E-01  1.3113803830346E+00 -5.3164056418455E-02
    64  6.3000000000000E-01  1.3018010845868E+00 -2.3422860830267E-02
    65  6.4000000000000E-01  1.2911006359835E+00  7.3195535689377E-03
    66  6.5000000000000E-01  1.2792943218427E+00  3.9041663942390E-02
    67  6.6000000000000E-01  1.2663995799489E+00  7.1717592802259E-02
    68  6.7000000000000E-01  1.2524360179429E+00  1.0531691812880E-01
    69  6.8000000000000E-01  1.2374254192170E+00  1.3980451796359E-01
    70  6.9000000000000E-01  1.2213917376383E+00  1.7514045203949E-01
    71  7.0000000000000E-01  1.2043610808227E+00  2.1127988262707E-01
    72  7.1000000000000E-01  1.1863616817914E+00  2.4817303636982E-01
    73  7.2000000000000E-01  1.1674238589441E+00  2.8576520845042E-01
    74  7.3000000000000E-01  1.1475799643974E+00  3.2399680998559E-01
    75  7.4000000000000E-01  1.1268643208422E+00  3.6280345909064E-01
    76  7.5000000000000E-01  1.1053131471832E+00  4.0211611559268E-01
    77  7.6000000000000E-01  1.0829644733304E+00  4.4186125890968E-01
    78  7.7000000000000E-01  1.0598580446114E+00  4.8196110815542E-01
    79  7.8000000000000E-01  1.0360352163735E+00  5.2233388308417E-01
    80  7.9000000000000E-01  1.0115388394316E+00  5.6289410405736E-01
    81  8.0000000000000E-01  9.8641313710563E-01  6.0355292880509E-01
    82  8.1000000000000E-01  9.6070357466503E-01  6.4421852336870E-01
    83  8.2000000000000E-01  9.3445672206346E-01  6.8479646425671E-01
    84  8.3000000000000E-01  9.0772011090727E-01  7.2519016852277E-01
    85  8.4000000000000E-01  8.8054208664540E-01  7.6530134819008E-01
    86  8.5000000000000E-01  8.5297165700592E-01  8.0503048520216E-01
    87  8.6000000000000E-01  8.2505833772869E-01  8.4427732287768E-01
    88  8.7000000000000E-01  7.9685199665758E-01  8.8294136968968E-01
    89  8.8000000000000E-01  7.6840269725701E-01  9.2092241107999E-01
    90  8.9000000000000E-01  7.3976054260865E-01  9.5812102495590E-01
    91  9.0000000000000E-01  7.1097552092271E-01  9.9443909650047E-01
    92  9.1000000000000E-01  6.8209735356676E-01  1.0297803279608E+00
    93  9.2000000000000E-01  6.5317534657261E-01  1.0640507391573E+00
    94  9.3000000000000E-01  6.2425824652949E-01  1.0971591545801E+00
    95  9.4000000000000E-01  5.9539410171040E-01  1.1290176731095E+00
    96  9.5000000000000E-01  5.6663012920882E-01  1.1595421166021E+00
    97  9.6000000000000E-01  5.3801258878582E-01  1.1886524538356E+00
    98  9.7000000000000E-01  5.0958666404399E-01  1.2162731965831E+00
    99  9.8000000000000E-01  4.8139635145606E-01  1.2423337649039E+00
   100  9.9000000000000E-01  4.5348435768316E-01  1.2667688190751E+00
   101  1.0000000000000E+00  4.2589200552203E-01  1.2895185559519E+00
   102  1.0100000000000E+00  3.9865914872317E-01  1.3105289679238E+00
   103  1.0200000000000E+00  3.7182409582454E-01  1.3297520630267E+00
   104  1.0300000000000E+00  3.4542354304858E-01  1.3471460451736E+00
   105  1.0400000000000E+00  3.1949251621619E-01  1.3626754538678E+00
   106  1.0500000000000E+00  2.9406432154008E-01  1.3763112631660E+00
   107  1.0600000000000E+00  2.6917050507384E-01  1.3880309400551E+00
   108  1.0700000000000E+00  2.4484082051229E-01  1.3978184627862E+00
   109  1.0800000000000E+00  2.2110320496494E-01  1.4056643000793E+00
   110  1.0900000000000E+00  1.9798376225813E-01  1.4115653524568E+00
   111  1.1000000000000E+00  1.7550675326386E-01  1.4155248572863E+00
   112  1.1100000000000E+00  1.5369459270485E-01  1.4175522594043E+00
   113  1.1200000000000E+00  1.3256785184683E-01  1.4176630494570E+00
   114  1.1300000000000E+00  1.1214526646067E-01  1.4158785723174E+00
   115  1.1400000000000E+00  9.2443749419257E-02  1.4122258081317E+00
   116  1.1500000000000E+00  7.3478407286957E-02  1.4067371286960E+00
   117  1.1600000000000E+00  5.5262560263300E-02  1.3994500319788E+00
   118  1.1700000000000E+00  3.7807764856778E-02  1.3904068576731E+00
   119  1.1800000000000E+00  2.1123838689435E-02  1.3796544866937E+00
   120  1.1900000000000E+00  5.2188868674444E-03  1.3672440275233E+00
   121  1.2000000000000E+00 -9.9006706031042E-03  1.3532304922617E+00
   122  1.2100000000000E+00 -2.4230070823498E-02  1.3376724651430E+00
   123  1.2200000000000E+00 -3.7766179840491E-02  1.3206317661622E+00
   124  1.2300000000000E+00 -5.0507464655643E-02  1.3021731122923E+00
   125  1.2400000000000E+00 -6.2453965673172E-02  1.2823637785842E+00
   126  1.2500000000000E+00 -7.3607269775378E-02  1.2612732612245E+00
   127  1.2600000000000E+00 -8.3970484133431E-02  1.2389729443827E+00
   128  1.2700000000000E+00 -9.3548210777098E-02  1.2155357724194E+00
   129  1.2800000000000E+00 -1.0234652186208E-01  1.1910359287464E+00
   130  1.2900000000000E+00 -1.1037293548901E-01  1.1655485223413E+00
   131  1.3000000000000E+00 -1.1763639184470E-01  1.1391492826199E+00
   132  1.3100000000000E+00 -1.2414722935594E-01  1.1119142630693E+00
   133  1.3200000000000E+00 -1.2991716046997E-01  1.0839195537467E+00
   134  1.3300000000000E+00 -1.3495924660448E-01  1.0552410024548E+00
   135  1.3400000000000E+00 -1.3928787174559E-01  1.0259539441223E+00
   136  1.3500000000000E+00 -1.4291871411522E-01  9.9613293765015E-01
   137  1.3600000000000E+00 -1.4586871528066E-01  9.6585150923706E-01
   138  1.3700000000000E+00 -1.4815604603985E-01  9.3518190096666E-01
   139  1.3800000000000E+00 -1.4980006838685E-01  9.0419482324151E-01
   140  1.3900000000000E+00 -1.5082129284362E-01  8.7295920947399E-01
   141  1.4000000000000E+00 -1.5124133043655E-01  8.4154197130317E-01
   142  1.4100000000000E+00 -1.5108283859694E-01  8.1000775244980E-01
   143  1.4200000000000E+00 -1.5036946030505E-01  7.7841867955673E-01
   144  1.4300000000000E+00 -1.4912575576429E-01  7.4683410749768E-01
   145  1.4400000000000E+00 -1.4737713140862E-01  7.1531042271287E-01
   146  1.4500000000000E+00 -1.4514980625504E-01  6.8390135509241E-01
   147  1.4600000000000E+00 -1.4247080544467E-01  6.5265857419960E-01
   148  1.4700000000000E+00 -1.3936793371418E-01  6.2163200483285E-01
   149  1.4800000000000E+00 -1.3586974574746E-01  5.9087011177772E-01
   150  1.4900000000000E+00 -1.3200551275607E-01  5.6042015895754E-01
   151  1.5000000000000E+00 -1.2780518416906E-01  5.3032844125108E-01
   152  1.5100000000000E+00 -1.2329934339728E-01  5.0064048656095E-01
   153  1.5200000000000E+00 -1.1851915681836E-01  4.7140122630500E-01
   154  1.5300000000000E+00 -1.1349631535991E-01  4.4265513349510E-01
   155  1.5400000000000E+00 -1.0826296822061E-01  4.1444632780367E-01
   156  1.5500000000000E+00 -1.0285164847308E-01  3.8681864768049E-01
   157  1.5600000000000E+00 -9.7295190460108E-02  3.5981568989433E-01
   158  1.5700000000000E+00 -9.1626639086983E-02  3.3348081744260E-01
   159  1.5800000000000E+00 -8.5879151239891E-02  3.0785713681228E-01
   160  1.5900000000000E+00 -8.0085889743509E-02  2.8298744618196E-01
   161  1.6000000000000E+00 -7.4279910401151E-02  2.5891415634913E-01
   162  1.6100000000000E+00 -6.8494042762828E-02  2.3567918621685E-01
   163  1.6200000000000E+00 -6.2760765427745E-02  2.1332383528884E-01
   164  1.6300000000000E+00 -5.7112076739863E-02  1.9188863541765E-01
   165  1.6400000000000E+00 -5.1579361863399E-02  1.7141318455361E-01
   166  1.6500000000000E+00 -4.6193257254698E-02  1.5193596504094E-01
   167  1.6600000000000E+00 -4.0983513652564E-02  1.3349414948864E-01
   168  1.6700000000000E+00 -3.5978858713732E-02  1.1612339701812E-01
   169  1.6800000000000E+00 -3.1206860346279E-02  9.9857642434587E-02
   170  1.6900000000000E+00 -2.6693792908290E-02  8.4728884690929E-02
   171  1.7000000000000E+00 -2.2464504065108E-02  7.0766966119386E-02
   172  1.7100000000000E+00 -1.8542289110431E-02  5.7999364098571E-02
   173  1.7200000000000E+00 -1.4949239908437E-02  4.6452594380316E-02
   174  1.7300000000000E+00 -1.1707314276045E-02  3.6156141214532E-02
   175  1.7400000000000E+00 -8.8343556861950E-03  2.7128960376629E-02
   176  1.7500000000000E+00 -6.3456995346335E-03  1.9385084410893E-02
   177  1.7600000000000E+00 -4.2544523073620E-03  1.2934678089206E-02
   178  1.7700000000000E+00 -2.5714737040183E-03  7.7841239734414E-03
   179  1.7800000000000E+00 -1.3058763486500E-03  3.9376310510607E-03
   180  1.7900000000000E+00 -4.5917522943014E-04  1.3798556773072E-03
   181  1.8000000000000E+00 -5.9067819660504E-05  1.7696016344527E-04
   182  1.8100000000000E+00  1.1647763151432E-05 -3.4793669005854E-05
   183  1.8200000000000E+00 -3.6874464032474E-06  1.1033349146701E-05
   184  1.8300  0. -0.
   185  1.8400  0. -0.
   186  1.8500  0.  0.
   187  1.8600  0.  0.
   188  1.8700  0.  0.
   189  1.8800  0.  0.
   190  1.8900  0.  0.
   191  1.9000  0.  0.
   192  1.9100  0.  0.
   193  1.9200  0.  0.
   194  1.9300  0.  0.
   195  1.9400  0.  0.
   196  1.9500  0.  0.
   197  1.9600  0.  0.
   198  1.9700  0.  0.
   199  1.9800  0.  0.
   200  1.9900  0.  0.
   201  2.0000  0.  0.
   202  2.0100  0.  0.
   203  2.0200  0.  0.
   204  2.0300  0.  0.
   205  2.0400  0.  0.
   206  2.0500  0.  0.
   207  2.0600  0.  0.
   208  2.0700  0.  0.
   209  2.0800  0.  0.
   210  2.0900  0.  0.
   211  2.1000  0.  0.
   212  2.1100  0.  0.
   213  2.1200  0.  0.
   214  2.1300  0.  0.
   215  2.1400  0.  0.
   216  2.1500  0.  0.
   217  2.1600  0.  0.
   218  2.1700  0.  0.
   219  2.1800  0.  0.
   220  2.1900  0.  0.
   221  2.2000  0.  0.
   222  2.2100  0.  0.
   223  2.2200  0.  0.
   224  2.2300  0.  0.
   225  2.2400  0.  0.
   226  2.2500  0.  0.
   227  2.2600  0.  0.
   228  2.2700  0.  0.
   229  2.2800  0.  0.
   230  2.2900  0.  0.
   231  2.3000  0.  0.
   232  2.3100  0.  0.
   233  2.3200  0.  0.
   234  2.3300  0.  0.
   235  2.3400  0.  0.
   236  2.3500  0.  0.
   237  2.3600  0.  0.
   238  2.3700  0.  0.
   239  2.3800  0.  0.
   240  2.3900  0.  0.
   241  2.4000  0.  0.
   242  2.4100  0.  0.
   243  2.4200  0.  0.
   244  2.4300  0.  0.
   245  2.4400  0.  0.
   246  2.4500  0.  0.
   247  2.4600  0.  0.
   248  2.4700  0.  0.
   249  2.4800  0.  0.
   250  2.4900  0.  0.
   251  2.5000  0.  0.
   252  2.5100  0.  0.
   253  2.5200  0.  0.
   254  2.5300  0.  0.
   255  2.5400  0.  0.
   256  2.5500  0.  0.
   257  2.5600  0.  0.
   258  2.5700  0.  0.
   259  2.5800  0.  0.
   260  2.5900  0.  0.
   261  2.6000  0.  0.
   262  2.6100  0.  0.
   263  2.6200  0.  0.
   264  2.6300  0.  0.
   265  2.6400  0.  0.
   266  2.6500  0.  0.
   267  2.6600  0.  0.
   268  2.6700  0.  0.
   269  2.6800  0.  0.
   270  2.6900  0.  0.
   271  2.7000  0.  0.
   272  2.7100  0.  0.
   273  2.7200  0.  0.
   274  2.7300  0.  0.
   275  2.7400  0.  0.
   276  2.7500  0.  0.
   277  2.7600  0.  0.
   278  2.7700  0.  0.
   279  2.7800  0.  0.
   280  2.7900  0.  0.
   281  2.8000  0.  0.
   282  2.8100  0.  0.
   283  2.8200  0.  0.
   284  2.8300  0.  0.
   285  2.8400  0.  0.
   286  2.8500  0.  0.
   287  2.8600  0.  0.
   288  2.8700  0.  0.
   289  2.8800  0.  0.
   290  2.8900  0.  0.
   291  2.9000  0.  0.
   292  2.9100  0.  0.
   293  2.9200  0.  0.
   294  2.9300  0.  0.
   295  2.9400  0.  0.
   296  2.9500  0.  0.
   297  2.9600  0.  0.
   298  2.9700  0.  0.
   299  2.9800  0.  0.
   300  2.9900  0.  0.
   301  3.0000  0.  0.
   302  3.0100  0.  0.
   303  3.0200  0.  0.
   304  3.0300  0.  0.
   305  3.0400  0.  0.
   306  3.0500  0.  0.
   307  3.0600  0.  0.
   308  3.0700  0.  0.
   309  3.0800  0.  0.
   310  3.0900  0.  0.
   311  3.1000  0.  0.
   312  3.1100  0.  0.
   313  3.1200  0.  0.
   314  3.1300  0.  0.
   315  3.1400  0.  0.
   316  3.1500  0.  0.
   317  3.1600  0.  0.
   318  3.1700  0.  0.
   319  3.1800  0.  0.
   320  3.1900  0.  0.
   321  3.2000  0.  0.
   322  3.2100  0.  0.
   323  3.2200  0.  0.
   324  3.2300  0.  0.
   325  3.2400  0.  0.
   326  3.2500  0.  0.
   327  3.2600  0.  0.
   328  3.2700  0.  0.
   329  3.2800  0.  0.
   330  3.2900  0.  0.
   331  3.3000  0.  0.
   332  3.3100  0.  0.
   333  3.3200  0.  0.
   334  3.3300  0.  0.
   335  3.3400  0.  0.
   336  3.3500  0.  0.
   337  3.3600  0.  0.
   338  3.3700  0.  0.
   339  3.3800  0.  0.
   340  3.3900  0.  0.
   341  3.4000  0.  0.
   342  3.4100  0.  0.
   343  3.4200  0.  0.
   344  3.4300  0.  0.
   345  3.4400  0.  0.
   346  3.4500  0.  0.
   347  3.4600  0.  0.
   348  3.4700  0.  0.
   349  3.4800  0.  0.
   350  3.4900  0.  0.
   351  3.5000  0.  0.
   352  3.5100  0.  0.
   353  3.5200  0.  0.
   354  3.5300  0.  0.
   355  3.5400  0.  0.
   356  3.5500  0.  0.
   357  3.5600  0.  0.
   358  3.5700  0.  0.
   359  3.5800  0.  0.
   360  3.5900  0.  0.
   361  3.6000  0.  0.
   362  3.6100  0.  0.
   363  3.6200  0.  0.
   364  3.6300  0.  0.
   365  3.6400  0.  0.
   366  3.6500  0.  0.
   367  3.6600  0.  0.
   368  3.6700  0.  0.
   369  3.6800  0.  0.
   370  3.6900  0.  0.
   371  3.7000  0.  0.
   372  3.7100  0.  0.
   373  3.7200  0.  0.
   374  3.7300  0.  0.
   375  3.7400  0.  0.
   376  3.7500  0.  0.
   377  3.7600  0.  0.
   378  3.7700  0.  0.
   379  3.7800  0.  0.
   380  3.7900  0.  0.
   381  3.8000  0.  0.
   382  3.8100  0.  0.
   383  3.8200  0.  0.
   384  3.8300  0.  0.
   385  3.8400  0.  0.
   386  3.8500  0.  0.
   387  3.8600  0.  0.
   388  3.8700  0.  0.
   389  3.8800  0.  0.
   390  3.8900  0.  0.
   391  3.9000  0.  0.
   392  3.9100  0.  0.
   393  3.9200  0.  0.
   394  3.9300  0.  0.
   395  3.9400  0.  0.
   396  3.9500  0.  0.
   397  3.9600  0.  0.
   398  3.9700  0.  0.
   399  3.9800  0.  0.
   400  3.9900  0.  0.
   401  4.0000  0.  0.
   402  4.0100  0.  0.
   403  4.0200  0.  0.
   404  4.0300  0.  0.
   405  4.0400  0.  0.
   406  4.0500  0.  0.
   407  4.0600  0.  0.
   408  4.0700  0.  0.
   409  4.0800  0.  0.
   410  4.0900  0.  0.
   411  4.1000  0.  0.
   412  4.1100  0.  0.
   413  4.1200  0.  0.
   414  4.1300  0.  0.
   415  4.1400  0.  0.
   416  4.1500  0.  0.
   417  4.1600  0.  0.
   418  4.1700  0.  0.
   419  4.1800  0.  0.
   420  4.1900  0.  0.
   421  4.2000  0.  0.
   422  4.2100  0.  0.
   423  4.2200  0.  0.
   424  4.2300  0.  0.
   425  4.2400  0.  0.
   426  4.2500  0.  0.
   427  4.2600  0.  0.
   428  4.2700  0.  0.
   429  4.2800  0.  0.
   430  4.2900  0.  0.
   431  4.3000  0.  0.
   432  4.3100  0.  0.
   433  4.3200  0.  0.
   434  4.3300  0.  0.
   435  4.3400  0.  0.
   436  4.3500  0.  0.
   437  4.3600  0.  0.
   438  4.3700  0.  0.
   439  4.3800  0.  0.
   440  4.3900  0.  0.
   441  4.4000  0.  0.
   442  4.4100  0.  0.
   443  4.4200  0.  0.
   444  4.4300  0.  0.
   445  4.4400  0.  0.
   446  4.4500  0.  0.
   447  4.4600  0.  0.
   448  4.4700  0.  0.
   449  4.4800  0.  0.
   450  4.4900  0.  0.
   451  4.5000  0.  0.
   452  4.5100  0.  0.
   453  4.5200  0.  0.
   454  4.5300  0.  0.
   455  4.5400  0.  0.
   456  4.5500  0.  0.
   457  4.5600  0.  0.
   458  4.5700  0.  0.
   459  4.5800  0.  0.
   460  4.5900  0.  0.
   461  4.6000  0.  0.
   462  4.6100  0.  0.
   463  4.6200  0.  0.
   464  4.6300  0.  0.
   465  4.6400  0.  0.
   466  4.6500  0.  0.
   467  4.6600  0.  0.
   468  4.6700  0.  0.
   469  4.6800  0.  0.
   470  4.6900  0.  0.
   471  4.7000  0.  0.
   472  4.7100  0.  0.
   473  4.7200  0.  0.
   474  4.7300  0.  0.
   475  4.7400  0.  0.
   476  4.7500  0.  0.
   477  4.7600  0.  0.
   478  4.7700  0.  0.
   479  4.7800  0.  0.
   480  4.7900  0.  0.
   481  4.8000  0.  0.
   482  4.8100  0.  0.
   483  4.8200  0.  0.
   484  4.8300  0.  0.
   485  4.8400  0.  0.
   486  4.8500  0.  0.
   487  4.8600  0.  0.
   488  4.8700  0.  0.
   489  4.8800  0.  0.
   490  4.8900  0.  0.
   491  4.9000  0.  0.
   492  4.9100  0.  0.
   493  4.9200  0.  0.
   494  4.9300  0.  0.
   495  4.9400  0.  0.
   496  4.9500  0.  0.
   497  4.9600  0.  0.
   498  4.9700  0.  0.
   499  4.9800  0.  0.
   500  4.9900  0.  0.
   501  5.0000  0.  0.
   502  5.0100  0.  0.
   503  5.0200  0.  0.
   504  5.0300  0.  0.
   505  5.0400  0.  0.
   506  5.0500  0.  0.
   507  5.0600  0.  0.
   508  5.0700  0.  0.
   509  5.0800  0.  0.
   510  5.0900  0.  0.
   511  5.1000  0.  0.
   512  5.1100  0.  0.
   513  5.1200  0.  0.
   514  5.1300  0.  0.
   515  5.1400  0.  0.
   516  5.1500  0.  0.
   517  5.1600  0.  0.
   518  5.1700  0.  0.
   519  5.1800  0.  0.
   520  5.1900  0.  0.
   521  5.2000  0.  0.
   522  5.2100  0.  0.
   523  5.2200  0.  0.
   524  5.2300  0.  0.
   525  5.2400  0.  0.
   526  5.2500  0.  0.
   527  5.2600  0.  0.
   528  5.2700  0.  0.
   529  5.2800  0.  0.
   530  5.2900  0.  0.
   531  5.3000  0.  0.
   532  5.3100  0.  0.
   533  5.3200  0.  0.
   534  5.3300  0.  0.
   535  5.3400  0.  0.
   536  5.3500  0.  0.
   537  5.3600  0.  0.
   538  5.3700  0.  0.
   539  5.3800  0.  0.
   540  5.3900  0.  0.
   541  5.4000  0.  0.
   542  5.4100  0.  0.
   543  5.4200  0.  0.
   544  5.4300  0.  0.
   545  5.4400  0.  0.
   546  5.4500  0.  0.
   547  5.4600  0.  0.
   548  5.4700  0.  0.
   549  5.4800  0.  0.
   550  5.4900  0.  0.
   551  5.5000  0.  0.
   552  5.5100  0.  0.
   553  5.5200  0.  0.
   554  5.5300  0.  0.
   555  5.5400  0.  0.
   556  5.5500  0.  0.
   557  5.5600  0.  0.
   558  5.5700  0.  0.
   559  5.5800  0.  0.
   560  5.5900  0.  0.
   561  5.6000  0.  0.
   562  5.6100  0.  0.
   563  5.6200  0.  0.
   564  5.6300  0.  0.
   565  5.6400  0.  0.
   566  5.6500  0.  0.
   567  5.6600  0.  0.
   568  5.6700  0.  0.
   569  5.6800  0.  0.
   570  5.6900  0.  0.
   571  5.7000  0.  0.
   572  5.7100  0.  0.
   573  5.7200  0.  0.
   574  5.7300  0.  0.
   575  5.7400  0.  0.
   576  5.7500  0.  0.
   577  5.7600  0.  0.
   578  5.7700  0.  0.
   579  5.7800  0.  0.
   580  5.7900  0.  0.
   581  5.8000  0.  0.
   582  5.8100  0.  0.
   583  5.8200  0.  0.
   584  5.8300  0.  0.
   585  5.8400  0.  0.
   586  5.8500  0.  0.
   587  5.8600  0.  0.
   588  5.8700  0.  0.
   589  5.8800  0.  0.
   590  5.8900  0.  0.
   591  5.9000  0.  0.
   592  5.9100  0.  0.
   593  5.9200  0.  0.
   594  5.9300  0.  0.
   595  5.9400  0.  0.
   596  5.9500  0.  0.
   597  5.9600  0.  0.
   598  5.9700  0.  0.
   599  5.9800  0.  0.
   600  5.9900  0.  0.
   1                         2.7110967487786E+00  5.7024616862809E-01
     1  0.0000000000000E+00  5.5740566374824E-09 -1.0033415050181E-08
     2  1.0000000000000E-02  4.5300058867323E-05  8.8244798109218E-04
     3  2.0000000000000E-02  1.7740213931069E-04  3.5354838776583E-03
     4  3.0000000000000E-02  3.8505429365749E-04  7.9759277413072E-03
     5  4.0000000000000E-02  6.4997441773886E-04  1.4230966286347E-02
     6  5.0000000000000E-02  9.4754538709264E-04  2.2336903670142E-02
     7  6.0000000000000E-02  1.2477653421873E-03  3.2337453815020E-02
     8  7.0000000000000E-02  1.5164307909251E-03  4.4281614468652E-02
     9  8.0000000000000E-02  1.7165246226267E-03  5.8221173233204E-02
    10  9.0000000000000E-02  1.8097761365594E-03  7.4207904777995E-02
    11  1.0000000000000E-01  1.7583558845520E-03  9.2290526197223E-02
    12  1.1000000000000E-01  1.5266646031933E-03  1.1251148381858E-01
    13  1.2000000000000E-01  1.0831728421553E-03  1.3490364957395E-01
    14  1.3000000000000E-01  4.0226613991177E-04  1.5948700820475E-01
    15  1.4000000000000E-01 -5.3395020301272E-04  1.8626541801900E-01
    16  1.5000000000000E-01 -1.7339325294907E-03  2.1522352760773E-01
    17  1.6000000000000E-01 -3.1951110358722E-03  2.4632392886231E-01
    18  1.7000000000000E-01 -4.9024753047060E-03  2.7950462284485E-01
    19  1.8000000000000E-01 -6.8273726498161E-03  3.1467686961939E-01
    20  1.9000000000000E-01 -8.9265548718256E-03  3.5172348615444E-01
    21  2.0000000000000E-01 -1.1141504341174E-02  3.9049764799064E-01
    22  2.1000000000000E-01 -1.3398064945772E-02  4.3082224069410E-01
    23  2.2000000000000E-01 -1.5606397466685E-02  4.7248979637571E-01
    24  2.3000000000000E-01 -1.7661272494745E-02  5.1526303895987E-01
    25  2.4000000000000E-01 -1.9442707201573E-02  5.5887604966282E-01
    26  2.5000000000000E-01 -2.0816945264936E-02  6.0303605153417E-01
    27  2.6000000000000E-01 -2.1637772161157E-02  6.4742579917708E-01
    28  2.7000000000000E-01 -2.1748151018335E-02  6.9170654714972E-01
    29  2.8000000000000E-01 -2.0982157415741E-02  7.3552155831727E-01
    30  2.9000000000000E-01 -1.9167185054591E-02  7.7850010181915E-01
    31  3.0000000000000E-01 -1.6126388246279E-02  8.2026187957801E-01
    32  3.1000000000000E-01 -1.1681321789041E-02  8.6042181062672E-01
    33  3.2000000000000E-01 -5.6547341451370E-03  8.9859509416880E-01
    34  3.3000000000000E-01  2.1265340133963E-03  9.3440246539332E-01
    35  3.4000000000000E-01  1.1828596768704E-02  9.6747555278596E-01
    36  3.5000000000000E-01  2.3607568291855E-02  9.9746224213201E-01
    37  3.6000000000000E-01  3.7606660381686E-02  1.0240319506775E+00
    38  3.7000000000000E-01  5.3953385975316E-02  1.0468807150522E+00
    39  3.8000000000000E-01  7.2756921286925E-02  1.0657359985722E+00
    40  3.9000000000000E-01  9.4105677088836E-02  1.0803611274088E+00
    41  4.0000000000000E-01  1.1806512650823E-01  1.0905592707708E+00
    42  4.1000000000000E-01  1.4467593262784E-01  1.0961768876010E+00
    43  4.2000000000000E-01  1.7395241422182E-01  1.0971065712077E+00
    44  4.3000000000000E-01  2.0588138221908E-01  1.0932892335728E+00
    45  4.4000000000000E-01  2.4042137307068E-01  1.0847155826066E+00
    46  4.5000000000000E-01  2.7750229822610E-01  1.0714268581488E+00
    47  4.6000000000000E-01  3.1702552152548E-01  1.0535148057946E+00
    48  4.7000000000000E-01  3.5886436863244E-01  1.0311208814180E+00
    49  4.8000000000000E-01  4.0286506481064E-01  1.0044346932926E+00
    50  4.9000000000000E-01  4.4884808953790E-01  9.7369170271297E-01
    51  5.0000000000000E-01  4.9660992880441E-01  9.3917021772019E-01
    52  5.1000000000000E-01  5.4592519860535E-01  9.0118772767072E-01
    53  5.2000000000000E-01  5.9654910625605E-01  8.6009663869545E-01
    54  5.3000000000000E-01  6.4822020986505E-01  8.1627948133894E-01
    55  5.4000000000000E-01  7.0066343072102E-01  7.7014367161958E-01
    56  5.5000000000000E-01  7.5359326859526E-01  7.2211591521288E-01
    57  5.6000000000000E-01  8.0671716612770E-01  6.7263635125976E-01
    58  5.7000000000000E-01  8.5973896562961E-01  6.2215253730012E-01
    59  5.8000000000000E-01  9.1236239985942E-01  5.7111337992378E-01
    60  5.9000000000000E-01  9.6429455764899E-01  5.1996311684623E-01
    61  6.0000000000000E-01  1.0152492656937E+00  4.6913545522559E-01
    62  6.1000000000000E-01  1.0649503293672E+00  4.1904796814724E-01
    63  6.2000000000000E-01  1.1131345780553E+00  3.7009684636073E-01
    64  6.3000000000000E-01  1.1595546641788E+00  3.2265209564520E-01
    65  6.4000000000000E-01  1.2039815697190E+00  2.7705326172637E-01
    66  6.5000000000000E-01  1.2462067795968E+00  2.3360575462701E-01
    67  6.6000000000000E-01  1.2860440875707E+00  1.9257783289158E-01
    68  6.7000000000000E-01  1.3233310072998E+00  1.5419829550083E-01
    69  6.8000000000000E-01  1.3579297687311E+00  1.1865491572446E-01
    70  6.9000000000000E-01  1.3897278878657E+00  8.6093636908999E-02
    71  7.0000000000000E-01  1.4186383060955E+00  5.6618535538316E-02
    72  7.1000000000000E-01  1.4445991035102E+00  3.0292542120407E-02
    73  7.2000000000000E-01  1.4675727987063E+00  7.1388958324394E-03
    74  7.3000000000000E-01  1.4875452555193E+00 -1.2856705316684E-02
    75  7.4000000000000E-01  1.5045242245936E+00 -2.9743310492146E-02
    76  7.5000000000000E-01  1.5185375546614E+00 -4.3601342347211E-02
    77  7.6000000000000E-01  1.5296311146723E+00 -5.4538718998046E-02
    78  7.7000000000000E-01  1.5378664733851E+00 -6.2686556761152E-02
    79  7.8000000000000E-01  1.5433183875911E+00 -6.8194546843623E-02
    80  7.9000000000000E-01  1.5460721536801E+00 -7.1226105438405E-02
    81  8.0000000000000E-01  1.5462208797376E+00 -7.1953400982197E-02
    82  8.1000000000000E-01  1.5438627366899E+00 -7.0552364590157E-02
    83  8.2000000000000E-01  1.5390982471949E+00 -6.7197789835802E-02
    84  8.3000000000000E-01  1.5320276699770E+00 -6.2058626084583E-02
    85  8.4000000000000E-01  1.5227485351548E+00 -5.5293565544594E-02
    86  8.5000000000000E-01  1.5113533828452E+00 -4.7047018138302E-02
    87  8.6000000000000E-01  1.4979277529984E+00 -3.7445560334775E-02
    88  8.7000000000000E-01  1.4825484691220E+00 -2.6594934361232E-02
    89  8.8000000000000E-01  1.4652822523740E+00 -1.4577662918537E-02
    90  8.9000000000000E-01  1.4461846955693E+00 -1.4513318727807E-03
    91  9.0000000000000E-01  1.4252996190900E+00  1.2752420372006E-02
    92  9.1000000000000E-01  1.4026588226524E+00  2.8028182731725E-02
    93  9.2000000000000E-01  1.3782822385298E+00  4.4396311623789E-02
    94  9.3000000000000E-01  1.3521784833178E+00  6.1901738014135E-02
    95  9.4000000000000E-01  1.3243457968309E+00  8.0612063283906E-02
    96  9.5000000000000E-01  1.2947733483964E+00  1.0061498094108E-01
    97  9.6000000000000E-01  1.2634428828407E+00  1.2201507563172E-01
    98  9.7000000000000E-01  1.2303306709955E+00  1.4493006440136E-01
    99  9.8000000000000E-01  1.1954097227406E+00  1.6948655745310E-01
   100  9.9000000000000E-01  1.1586522145895E+00  1.9581542648439E-01
   101  1.0000000000000E+00  1.1200320787339E+00  2.2404687784258E-01