S     ONCVPSP-4.0.1  r_core=   1.80696   1.80696   1.90691
     16.0000      6.0000      211017    zatom,zion,pspd
     8      11   2     4   600     0    pspcod,pspxc,lmax,lloc,mmax,r2well
  5.99000000  6.00000000  0.00000000    rchrg fchrg qchrg
     2     2     2     0     0    nproj
     1     1           extension_switch
   0                         7.5037496205749E+00  7.5103892911092E-01
     1  0.0000000000000E+00  1.5332740632701E-10 -4.7684081683208E-10
     2  1.0000000000000E-02  4.0345212074854E-02 -2.1052941635038E-02
     3  2.0000000000000E-02  8.0675845367364E-02 -4.2097680321361E-02
     4  3.0000000000000E-02  1.2097706782638E-01 -6.3125408832574E-02
     5  4.0000000000000E-02  1.6123354418520E-01 -8.4126120700269E-02
     6  5.0000000000000E-02  2.0142919261953E-01 -1.0508803375332E-01
     7  6.0000000000000E-02  2.4154695121404E-01 -1.2599704110651E-01
     8  7.0000000000000E-02  2.8156855732516E-01 -1.4683619818112E-01
     9  8.0000000000000E-02  3.2147434277389E-01 -1.6758525386320E-01
    10  9.0000000000000E-02  3.6124304761477E-01 -1.8822023332056E-01
    11  1.0000000000000E-01  4.0085165500567E-01 -2.0871307931421E-01
    12  1.1000000000000E-01  4.4027524945262E-01 -2.2903135806282E-01
    13  1.2000000000000E-01  4.7948690042572E-01 -2.4913803485997E-01
    14  1.3000000000000E-01  5.1845757304061E-01 -2.6899132371353E-01
    15  1.4000000000000E-01  5.5715606717821E-01 -2.8854461428738E-01
    16  1.5000000000000E-01  5.9554898607729E-01 -3.0774647838927E-01
    17  1.6000000000000E-01  6.3360073508446E-01 -3.2654075717945E-01
    18  1.7000000000000E-01  6.7127355088755E-01 -3.4486672918518E-01
    19  1.8000000000000E-01  7.0852756119669E-01 -3.6265935811129E-01
    20  1.9000000000000E-01  7.4532087447567E-01 -3.7984961835058E-01
    21  2.0000000000000E-01  7.8160969897018E-01 -3.9636489503349E-01
    22  2.1000000000000E-01  8.1734848993209E-01 -4.1212945442897E-01
    23  2.2000000000000E-01  8.5249012360560E-01 -4.2706497953056E-01
    24  2.3000000000000E-01  8.8698609622461E-01 -4.4109116474664E-01
    25  2.4000000000000E-01  9.2078674597651E-01 -4.5412636277351E-01
    26  2.5000000000000E-01  9.5384149561718E-01 -4.6608827597621E-01
    27  2.6000000000000E-01  9.8609911318086E-01 -4.7689468394442E-01
    28  2.7000000000000E-01  1.0175079880181E+00 -4.8646419833893E-01
    29  2.8000000000000E-01  1.0480164192182E+00 -4.9471703570561E-01
    30  2.9000000000000E-01  1.0775729133325E+00 -5.0157579861509E-01
    31  3.0000000000000E-01  1.1061264882108E+00 -5.0696625529200E-01
    32  3.1000000000000E-01  1.1336269797002E+00 -5.1081810783153E-01
    33  3.2000000000000E-01  1.1600253479316E+00 -5.1306573916439E-01
    34  3.3000000000000E-01  1.1852739799323E+00 -5.1364892912404E-01
    35  3.4000000000000E-01  1.2093269853631E+00 -5.1251353029131E-01
    36  3.5000000000000E-01  1.2321404822676E+00 -5.0961209473693E-01
    37  3.6000000000000E-01  1.2536728698593E+00 -5.0490444334773E-01
    38  3.7000000000000E-01  1.2738850855368E+00 -4.9835817010077E-01
    39  3.8000000000000E-01  1.2927408435227E+00 -4.8994907443271E-01
    40  3.9000000000000E-01  1.3102068527552E+00 -4.7966151573104E-01
    41  4.0000000000000E-01  1.3262530119252E+00 -4.6748868493631E-01
    42  4.1000000000000E-01  1.3408525798397E+00 -4.5343278928090E-01
    43  4.2000000000000E-01  1.3539823196010E+00 -4.3750514728483E-01
    44  4.3000000000000E-01  1.3656226154203E+00 -4.1972619226941E-01
    45  4.4000000000000E-01  1.3757575612230E+00 -4.0012538382034E-01
    46  4.5000000000000E-01  1.3843750205527E+00 -3.7874102781843E-01
    47  4.6000000000000E-01  1.3914666576354E+00 -3.5562000684127E-01
    48  4.7000000000000E-01  1.3970279398168E+00 -3.3081742390891E-01
    49  4.8000000000000E-01  1.4010581119353E+00 -3.0439616368416E-01
    50  4.9000000000000E-01  1.4035601435308E+00 -2.7642637632805E-01
    51  5.0000000000000E-01  1.4045406501144E+00 -2.4698489023868E-01
    52  5.1000000000000E-01  1.4040097900306E+00 -2.1615456085304E-01
    53  5.2000000000000E-01  1.4019811387251E+00 -1.8402356355220E-01
    54  5.3000000000000E-01  1.3984715424919E+00 -1.5068463946878E-01
    55  5.4000000000000E-01  1.3935009539966E+00 -1.1623430364182E-01
    56  5.5000000000000E-01  1.3870922520727E+00 -8.0772025485288E-02
    57  5.6000000000000E-01  1.3792710484402E+00 -4.4399391929080E-02
    58  5.7000000000000E-01  1.3700654841240E+00 -7.2192638442562E-03
    59  5.8000000000000E-01  1.3595060184256E+00  3.0665063522654E-02
    60  5.9000000000000E-01  1.3476252133468E+00  6.9150685414956E-02
    61  6.0000000000000E-01  1.3344575163635E+00  1.0813588721602E-01
    62  6.1000000000000E-01  1.3200390444047E+00  1.4752090869203E-01
    63  6.2000000000000E-01  1.3044073718135E+00  1.8720866309683E-01
    64  6.3000000000000E-01  1.2876013249439E+00  2.2710540200538E-01
    65  6.4000000000000E-01  1.2696607858881E+00  2.6712131746866E-01
    66  6.5000000000000E-01  1.2506265076370E+00  3.0717107392651E-01
    67  6.6000000000000E-01  1.2305399427452E+00  3.4717426326756E-01
    68  6.7000000000000E-01  1.2094430873203E+00  3.8705577747384E-01
    69  6.8000000000000E-01  1.1873783418689E+00  4.2674609441662E-01
    70  6.9000000000000E-01  1.1643883902298E+00  4.6618147356666E-01
    71  7.0000000000000E-01  1.1405160975031E+00  5.0530405962691E-01
    72  7.1000000000000E-01  1.1158044275469E+00  5.4406189337526E-01
    73  7.2000000000000E-01  1.0902963802757E+00  5.8240883029601E-01
    74  7.3000000000000E-01  1.0640349486448E+00  6.2030436886913E-01
    75  7.4000000000000E-01  1.0370630948663E+00  6.5771339165164E-01
    76  7.5000000000000E-01  1.0094237450676E+00  6.9460582351066E-01
    77  7.6000000000000E-01  9.8115980128057E-01  7.3095621253351E-01
    78  7.7000000000000E-01  9.5231416934858E-01  7.6674324022867E-01
    79  7.8000000000000E-01  9.2292980105729E-01  8.0194916862627E-01
    80  7.9000000000000E-01  8.9304974854224E-01  8.3655923277193E-01
    81  8.0000000000000E-01  8.6271722880622E-01  8.7056098786917E-01
    82  8.1000000000000E-01  8.3197569599333E-01  9.0394362095043E-01
    83  8.2000000000000E-01  8.0086891892019E-01  9.3669723743329E-01
    84  8.3000000000000E-01  7.6944106125999E-01  9.6881213323908E-01
    85  8.4000000000000E-01  7.3773676171389E-01  1.0002780633069E+00
    86  8.5000000000000E-01  7.0580121148895E-01  1.0310835173240E+00
    87  8.6000000000000E-01  6.7368022643298E-01  1.0612150133100E+00
    88  8.7000000000000E-01  6.4142031125459E-01  1.0906564193378E+00
    89  8.8000000000000E-01  6.0906871338146E-01  1.1193883131510E+00
    90  8.9000000000000E-01  5.7667346417978E-01  1.1473873887497E+00
    91  9.0000000000000E-01  5.4428340547215E-01  1.1746259181745E+00
    92  9.1000000000000E-01  5.1194819954608E-01  1.2010712757249E+00
    93  9.2000000000000E-01  4.7971832113970E-01  1.2266855307246E+00
    94  9.3000000000000E-01  4.4764503021960E-01  1.2514251136961E+00
    95  9.4000000000000E-01  4.1578032472528E-01  1.2752405594546E+00
    96  9.5000000000000E-01  3.8417687284001E-01  1.2980763291910E+00
    97  9.6000000000000E-01  3.5288792475438E-01  1.3198707121001E+00
    98  9.7000000000000E-01  3.2196720430991E-01  1.3405558055547E+00
    99  9.8000000000000E-01  2.9146878134182E-01  1.3600575712367E+00
   100  9.9000000000000E-01  2.6144692597411E-01  1.3782959630489E+00
   101  1.0000000000000E+00  2.3195594655207E-01  1.3951851210523E+00
   102  1.0100000000000E+00  2.0305001332004E-01  1.4106336241456E+00
   103  1.0200000000000E+00  1.7478297035985E-01  1.4245447927266E+00
   104  1.0300000000000E+00  1.4720813869088E-01  1.4368170311922E+00
   105  1.0400000000000E+00  1.2037811379173E-01  1.4473441988509E+00
   106  1.0500000000000E+00  9.4344561128806E-02  1.4560159966644E+00
   107  1.0600000000000E+00  6.9158013564070E-02  1.4627183562248E+00
   108  1.0700000000000E+00  4.4867674745490E-02  1.4673338158809E+00
   109  1.0800000000000E+00  2.1521232877697E-02  1.4697418726635E+00
   110  1.0900000000000E+00 -8.3531141810328E-04  1.4698192674383E+00
   111  1.1000000000000E+00 -2.2157705585142E-02  1.4674460068220E+00
   112  1.1100000000000E+00 -4.2403556085869E-02  1.4625295768957E+00
   113  1.1200000000000E+00 -6.1533380203111E-02  1.4550121420446E+00
   114  1.1300000000000E+00 -7.9511760766325E-02  1.4448645512781E+00
   115  1.1400000000000E+00 -9.6308149763558E-02  1.4320809007350E+00
   116  1.1500000000000E+00 -1.1189738538689E-01  1.4166741787175E+00
   117  1.1600000000000E+00 -1.2625999466686E-01  1.3986730252036E+00
   118  1.1700000000000E+00 -1.3938234416276E-01  1.3781194878741E+00
   119  1.1800000000000E+00 -1.5125668725919E-01  1.3550675936761E+00
   120  1.1900000000000E+00 -1.6188114291321E-01  1.3295825385555E+00
   121  1.2000000000000E+00 -1.7125962882854E-01  1.3017403092112E+00
   122  1.2100000000000E+00 -1.7940176287961E-01  1.2716275761996E+00
   123  1.2200000000000E+00 -1.8632274000633E-01  1.2393417278091E+00
   124  1.2300000000000E+00 -1.9204318742023E-01  1.2049909438271E+00
   125  1.2400000000000E+00 -1.9658899831295E-01  1.1686942342350E+00
   126  1.2500000000000E+00 -1.9999114284051E-01  1.1305813896472E+00
   127  1.2600000000000E+00 -2.0228545460549E-01  1.0907928074420E+00
   128  1.2700000000000E+00 -2.0351239097133E-01  1.0494791722966E+00
   129  1.2800000000000E+00 -2.0371676537066E-01  1.0068009732804E+00
   130  1.2900000000000E+00 -2.0294745197941E-01  9.6292786904259E-01
   131  1.3000000000000E+00 -2.0125706031755E-01  9.1803787382454E-01
   132  1.3100000000000E+00 -1.9870158302978E-01  8.7231640608196E-01
   133  1.3200000000000E+00 -1.9534001571881E-01  8.2595518030271E-01
   134  1.3300000000000E+00 -1.9123395195855E-01  7.7915097123971E-01
   135  1.3400000000000E+00 -1.8644715548197E-01  7.3210426001576E-01
   136  1.3500000000000E+00 -1.8104511266445E-01  6.8501778050605E-01
   137  1.3600000000000E+00 -1.7509456881280E-01  6.3809498452888E-01
   138  1.3700000000000E+00 -1.6866305221665E-01  5.9153844570442E-01
   139  1.3800000000000E+00 -1.6181839027189E-01  5.4554822260710E-01
   140  1.3900000000000E+00 -1.5462822229616E-01  5.0032020261239E-01
   141  1.4000000000000E+00 -1.4715951382196E-01  4.5604444771117E-01
   142  1.4100000000000E+00 -1.3947807733396E-01  4.1290356399259E-01
   143  1.4200000000000E+00 -1.3164810442580E-01  3.7107111581944E-01
   144  1.4300000000000E+00 -1.2373171434636E-01  3.3071010534289E-01
   145  1.4400000000000E+00 -1.1578852380327E-01  2.9197153717920E-01
   146  1.4500000000000E+00 -1.0787524271152E-01  2.5499308696729E-01
   147  1.4600000000000E+00 -1.0004530032412E-01  2.1989789120157E-01
   148  1.4700000000000E+00 -9.2348505899052E-02  1.8679347442955E-01
   149  1.4800000000000E+00 -8.4830747660715E-02  1.5577082802735E-01
   150  1.4900000000000E+00 -7.7533733404728E-02  1.2690365301251E-01
   151  1.5000000000000E+00 -7.0494775647462E-02  1.0024777751770E-01
   152  1.5100000000000E+00 -6.3746623667217E-02  7.5840757130929E-02
   153  1.5200000000000E+00 -5.7317344300304E-02  5.3701664514892E-02
   154  1.5300000000000E+00 -5.1230252737472E-02  3.3831072118198E-02
   155  1.5400000000000E+00 -4.5503894023082E-02  1.6211229767658E-02
   156  1.5500000000000E+00 -4.0152075320136E-02  8.0643634154817E-04
   157  1.5600000000000E+00 -3.5183948456613E-02 -1.2436397254538E-02
   158  1.5700000000000E+00 -3.0604141626279E-02 -2.3586999162905E-02
   159  1.5800000000000E+00 -2.6412938555146E-02 -3.2730809123763E-02
   160  1.5900000000000E+00 -2.2606502900694E-02 -3.9967881930008E-02
   161  1.6000000000000E+00 -1.9177145063948E-02 -4.5411633527604E-02
   162  1.6100000000000E+00 -1.6113628142429E-02 -4.9187443059877E-02
   163  1.6200000000000E+00 -1.3401509248354E-02 -5.1431126100307E-02
   164  1.6300000000000E+00 -1.1023512020979E-02 -5.2287295715683E-02
   165  1.6400000000000E+00 -8.9599257605260E-03 -5.1907629523913E-02
   166  1.6500000000000E+00 -7.1890263252084E-03 -5.0449061876451E-02
   167  1.6600000000000E+00 -5.6875136597876E-03 -4.8071921297816E-02
   168  1.6700000000000E+00 -4.4309606056383E-03 -4.4938034119254E-02
   169  1.6800000000000E+00 -3.3942675473149E-03 -4.1208815470415E-02
   170  1.6900000000000E+00 -2.5521160687892E-03 -3.7043373063112E-02
   171  1.7000000000000E+00 -1.8794297081949E-03 -3.2596604059826E-02
   172  1.7100000000000E+00 -1.3517727262490E-03 -2.8017496863049E-02
   173  1.7200000000000E+00 -9.4623367811194E-04 -2.3445999243532E-02
   174  1.7300000000000E+00 -6.4414542838242E-04 -1.9004253042362E-02
   175  1.7400000000000E+00 -4.2589800559183E-04 -1.4811890105482E-02
   176  1.7500000000000E+00 -2.7229978601769E-04 -1.0981688323876E-02
   177  1.7600000000000E+00 -1.6691749305255E-04 -7.6121905413626E-03
   178  1.7700000000000E+00 -9.6139301053799E-05 -4.7871949203551E-03
   179  1.7800000000000E+00 -4.9506177355119E-05 -2.5755022005577E-03
   180  1.7900000000000E+00 -1.9707499133672E-05 -1.0199598878730E-03
   181  1.8000000000000E+00 -3.8793628940062E-06 -1.8771715810387E-04
   182  1.8100000000000E+00  3.5788760776380E-07  1.9440614646441E-05
   183  1.8200000000000E+00 -8.2508940650949E-08 -4.3268979524565E-06
   184  1.8300  0.  0.
   185  1.8400  0. -0.
   186  1.8500  0. -0.
   187  1.8600  0.  0.
   188  1.8700  0.  0.
   189  1.8800  0.  0.
   190  1.8900  0.  0.
   191  1.9000  0.  0.
   192  1.9100  0.  0.
   193  1.9200  0.  0.
   194  1.9300  0.  0.
   195  1.9400  0.  0.
   196  1.9500  0.  0.
   197  1.9600  0.  0.
   198  1.9700  0.  0.
   199  1.9800  0.  0.
   200  1.9900  0.  0.
   201  2.0000  0.  0.
   202  2.0100  0.  0.
   203  2.0200  0.  0.
   204  2.0300  0.  0.
   205  2.0400  0.  0.
   206  2.0500  0.  0.
   207  2.0600  0.  0.
   208  2.0700  0.  0.
   209  2.0800  0.  0.
   210  2.0900  0.  0.
   211  2.1000  0.  0.
   212  2.1100  0.  0.
   213  2.1200  0.  0.
   214  2.1300  0.  0.
   215  2.1400  0.  0.
   216  2.1500  0.  0.
   217  2.1600  0.  0.
   218  2.1700  0.  0.
   219  2.1800  0.  0.
   220  2.1900  0.  0.
   221  2.2000  0.  0.
   222  2.2100  0.  0.
   223  2.2200  0.  0.
   224  2.2300  0.  0.
   225  2.2400  0.  0.
   226  2.2500  0.  0.
   227  2.2600  0.  0.
   228  2.2700  0.  0.
   229  2.2800  0.  0.
   230  2.2900  0.  0.
   231  2.3000  0.  0.
   232  2.3100  0.  0.
   233  2.3200  0.  0.
   234  2.3300  0.  0.
   235  2.3400  0.  0.
   236  2.3500  0.  0.
   237  2.3600  0.  0.
   238  2.3700  0.  0.
   239  2.3800  0.  0.
   240  2.3900  0.  0.
   241  2.4000  0.  0.
   242  2.4100  0.  0.
   243  2.4200  0.  0.
   244  2.4300  0.  0.
   245  2.4400  0.  0.
   246  2.4500  0.  0.
   247  2.4600  0.  0.
   248  2.4700  0.  0.
   249  2.4800  0.  0.
   250  2.4900  0.  0.
   251  2.5000  0.  0.
   252  2.5100  0.  0.
   253  2.5200  0.  0.
   254  2.5300  0.  0.
   255  2.5400  0.  0.
   256  2.5500  0.  0.
   257  2.5600  0.  0.
   258  2.5700  0.  0.
   259  2.5800  0.  0.
   260  2.5900  0.  0.
   261  2.6000  0.  0.
   262  2.6100  0.  0.
   263  2.6200  0.  0.
   264  2.6300  0.  0.
   265  2.6400  0.  0.
   266  2.6500  0.  0.
   267  2.6600  0.  0.
   268  2.6700  0.  0.
   269  2.6800  0.  0.
   270  2.6900  0.  0.
   271  2.7000  0.  0.
   272  2.7100  0.  0.
   273  2.7200  0.  0.
   274  2.7300  0.  0.
   275  2.7400  0.  0.
   276  2.7500  0.  0.
   277  2.7600  0.  0.
   278  2.7700  0.  0.
   279  2.7800  0.  0.
   280  2.7900  0.  0.
   281  2.8000  0.  0.
   282  2.8100  0.  0.
   283  2.8200  0.  0.
   284  2.8300  0.  0.
   285  2.8400  0.  0.
   286  2.8500  0.  0.
   287  2.8600  0.  0.
   288  2.8700  0.  0.
   289  2.8800  0.  0.
   290  2.8900  0.  0.
   291  2.9000  0.  0.
   292  2.9100  0.  0.
   293  2.9200  0.  0.
   294  2.9300  0.  0.
   295  2.9400  0.  0.
   296  2.9500  0.  0.
   297  2.9600  0.  0.
   298  2.9700  0.  0.
   299  2.9800  0.  0.
   300  2.9900  0.  0.
   301  3.0000  0.  0.
   302  3.0100  0.  0.
   303  3.0200  0.  0.
   304  3.0300  0.  0.
   305  3.0400  0.  0.
   306  3.0500  0.  0.
   307  3.0600  0.  0.
   308  3.0700  0.  0.
   309  3.0800  0.  0.
   310  3.0900  0.  0.
   311  3.1000  0.  0.
   312  3.1100  0.  0.
   313  3.1200  0.  0.
   314  3.1300  0.  0.
   315  3.1400  0.  0.
   316  3.1500  0.  0.
   317  3.1600  0.  0.
   318  3.1700  0.  0.
   319  3.1800  0.  0.
   320  3.1900  0.  0.
   321  3.2000  0.  0.
   322  3.2100  0.  0.
   323  3.2200  0.  0.
   324  3.2300  0.  0.
   325  3.2400  0.  0.
   326  3.2500  0.  0.
   327  3.2600  0.  0.
   328  3.2700  0.  0.
   329  3.2800  0.  0.
   330  3.2900  0.  0.
   331  3.3000  0.  0.
   332  3.3100  0.  0.
   333  3.3200  0.  0.
   334  3.3300  0.  0.
   335  3.3400  0.  0.
   336  3.3500  0.  0.
   337  3.3600  0.  0.
   338  3.3700  0.  0.
   339  3.3800  0.  0.
   340  3.3900  0.  0.
   341  3.4000  0.  0.
   342  3.4100  0.  0.
   343  3.4200  0.  0.
   344  3.4300  0.  0.
   345  3.4400  0.  0.
   346  3.4500  0.  0.
   347  3.4600  0.  0.
   348  3.4700  0.  0.
   349  3.4800  0.  0.
   350  3.4900  0.  0.
   351  3.5000  0.  0.
   352  3.5100  0.  0.
   353  3.5200  0.  0.
   354  3.5300  0.  0.
   355  3.5400  0.  0.
   356  3.5500  0.  0.
   357  3.5600  0.  0.
   358  3.5700  0.  0.
   359  3.5800  0.  0.
   360  3.5900  0.  0.
   361  3.6000  0.  0.
   362  3.6100  0.  0.
   363  3.6200  0.  0.
   364  3.6300  0.  0.
   365  3.6400  0.  0.
   366  3.6500  0.  0.
   367  3.6600  0.  0.
   368  3.6700  0.  0.
   369  3.6800  0.  0.
   370  3.6900  0.  0.
   371  3.7000  0.  0.
   372  3.7100  0.  0.
   373  3.7200  0.  0.
   374  3.7300  0.  0.
   375  3.7400  0.  0.
   376  3.7500  0.  0.
   377  3.7600  0.  0.
   378  3.7700  0.  0.
   379  3.7800  0.  0.
   380  3.7900  0.  0.
   381  3.8000  0.  0.
   382  3.8100  0.  0.
   383  3.8200  0.  0.
   384  3.8300  0.  0.
   385  3.8400  0.  0.
   386  3.8500  0.  0.
   387  3.8600  0.  0.
   388  3.8700  0.  0.
   389  3.8800  0.  0.
   390  3.8900  0.  0.
   391  3.9000  0.  0.
   392  3.9100  0.  0.
   393  3.9200  0.  0.
   394  3.9300  0.  0.
   395  3.9400  0.  0.
   396  3.9500  0.  0.
   397  3.9600  0.  0.
   398  3.9700  0.  0.
   399  3.9800  0.  0.
   400  3.9900  0.  0.
   401  4.0000  0.  0.
   402  4.0100  0.  0.
   403  4.0200  0.  0.
   404  4.0300  0.  0.
   405  4.0400  0.  0.
   406  4.0500  0.  0.
   407  4.0600  0.  0.
   408  4.0700  0.  0.
   409  4.0800  0.  0.
   410  4.0900  0.  0.
   411  4.1000  0.  0.
   412  4.1100  0.  0.
   413  4.1200  0.  0.
   414  4.1300  0.  0.
   415  4.1400  0.  0.
   416  4.1500  0.  0.
   417  4.1600  0.  0.
   418  4.1700  0.  0.
   419  4.1800  0.  0.
   420  4.1900  0.  0.
   421  4.2000  0.  0.
   422  4.2100  0.  0.
   423  4.2200  0.  0.
   424  4.2300  0.  0.
   425  4.2400  0.  0.
   426  4.2500  0.  0.
   427  4.2600  0.  0.
   428  4.2700  0.  0.
   429  4.2800  0.  0.
   430  4.2900  0.  0.
   431  4.3000  0.  0.
   432  4.3100  0.  0.
   433  4.3200  0.  0.
   434  4.3300  0.  0.
   435  4.3400  0.  0.
   436  4.3500  0.  0.
   437  4.3600  0.  0.
   438  4.3700  0.  0.
   439  4.3800  0.  0.
   440  4.3900  0.  0.
   441  4.4000  0.  0.
   442  4.4100  0.  0.
   443  4.4200  0.  0.
   444  4.4300  0.  0.
   445  4.4400  0.  0.
   446  4.4500  0.  0.
   447  4.4600  0.  0.
   448  4.4700  0.  0.
   449  4.4800  0.  0.
   450  4.4900  0.  0.
   451  4.5000  0.  0.
   452  4.5100  0.  0.
   453  4.5200  0.  0.
   454  4.5300  0.  0.
   455  4.5400  0.  0.
   456  4.5500  0.  0.
   457  4.5600  0.  0.
   458  4.5700  0.  0.
   459  4.5800  0.  0.
   460  4.5900  0.  0.
   461  4.6000  0.  0.
   462  4.6100  0.  0.
   463  4.6200  0.  0.
   464  4.6300  0.  0.
   465  4.6400  0.  0.
   466  4.6500  0.  0.
   467  4.6600  0.  0.
   468  4.6700  0.  0.
   469  4.6800  0.  0.
   470  4.6900  0.  0.
   471  4.7000  0.  0.
   472  4.7100  0.  0.
   473  4.7200  0.  0.
   474  4.7300  0.  0.
   475  4.7400  0.  0.
   476  4.7500  0.  0.
   477  4.7600  0.  0.
   478  4.7700  0.  0.
   479  4.7800  0.  0.
   480  4.7900  0.  0.
   481  4.8000  0.  0.
   482  4.8100  0.  0.
   483  4.8200  0.  0.
   484  4.8300  0.  0.
   485  4.8400  0.  0.
   486  4.8500  0.  0.
   487  4.8600  0.  0.
   488  4.8700  0.  0.
   489  4.8800  0.  0.
   490  4.8900  0.  0.
   491  4.9000  0.  0.
   492  4.9100  0.  0.
   493  4.9200  0.  0.
   494  4.9300  0.  0.
   495  4.9400  0.  0.
   496  4.9500  0.  0.
   497  4.9600  0.  0.
   498  4.9700  0.  0.
   499  4.9800  0.  0.
   500  4.9900  0.  0.
   501  5.0000  0.  0.
   502  5.0100  0.  0.
   503  5.0200  0.  0.
   504  5.0300  0.  0.
   505  5.0400  0.  0.
   506  5.0500  0.  0.
   507  5.0600  0.  0.
   508  5.0700  0.  0.
   509  5.0800  0.  0.
   510  5.0900  0.  0.
   511  5.1000  0.  0.
   512  5.1100  0.  0.
   513  5.1200  0.  0.
   514  5.1300  0.  0.
   515  5.1400  0.  0.
   516  5.1500  0.  0.
   517  5.1600  0.  0.
   518  5.1700  0.  0.
   519  5.1800  0.  0.
   520  5.1900  0.  0.
   521  5.2000  0.  0.
   522  5.2100  0.  0.
   523  5.2200  0.  0.
   524  5.2300  0.  0.
   525  5.2400  0.  0.
   526  5.2500  0.  0.
   527  5.2600  0.  0.
   528  5.2700  0.  0.
   529  5.2800  0.  0.
   530  5.2900  0.  0.
   531  5.3000  0.  0.
   532  5.3100  0.  0.
   533  5.3200  0.  0.
   534  5.3300  0.  0.
   535  5.3400  0.  0.
   536  5.3500  0.  0.
   537  5.3600  0.  0.
   538  5.3700  0.  0.
   539  5.3800  0.  0.
   540  5.3900  0.  0.
   541  5.4000  0.  0.
   542  5.4100  0.  0.
   543  5.4200  0.  0.
   544  5.4300  0.  0.
   545  5.4400  0.  0.
   546  5.4500  0.  0.
   547  5.4600  0.  0.
   548  5.4700  0.  0.
   549  5.4800  0.  0.
   550  5.4900  0.  0.
   551  5.5000  0.  0.
   552  5.5100  0.  0.
   553  5.5200  0.  0.
   554  5.5300  0.  0.
   555  5.5400  0.  0.
   556  5.5500  0.  0.
   557  5.5600  0.  0.
   558  5.5700  0.  0.
   559  5.5800  0.  0.
   560  5.5900  0.  0.
   561  5.6000  0.  0.
   562  5.6100  0.  0.
   563  5.6200  0.  0.
   564  5.6300  0.  0.
   565  5.6400  0.  0.
   566  5.6500  0.  0.
   567  5.6600  0.  0.
   568  5.6700  0.  0.
   569  5.6800  0.  0.
   570  5.6900  0.  0.
   571  5.7000  0.  0.
   572  5.7100  0.  0.
   573  5.7200  0.  0.
   574  5.7300  0.  0.
   575  5.7400  0.  0.
   576  5.7500  0.  0.
   577  5.7600  0.  0.
   578  5.7700  0.  0.
   579  5.7800  0.  0.
   580  5.7900  0.  0.
   581  5.8000  0.  0.
   582  5.8100  0.  0.
   583  5.8200  0.  0.
   584  5.8300  0.  0.
   585  5.8400  0.  0.
   586  5.8500  0.  0.
   587  5.8600  0.  0.
   588  5.8700  0.  0.
   589  5.8800  0.  0.
   590  5.8900  0.  0.
   591  5.9000  0.  0.
   592  5.9100  0.  0.
   593  5.9200  0.  0.
   594  5.9300  0.  0.
   595  5.9400  0.  0.
   596  5.9500  0.  0.
   597  5.9600  0.  0.
   598  5.9700  0.  0.
   599  5.9800  0.  0.
   600  5.9900  0.  0.
   1                         3.5256308397805E+00  4.0120315732422E-01
     1  0.0000000000000E+00  4.8700890542541E-11 -1.5662817570705E-10
     2  1.0000000000000E-02  1.0292303662013E-03 -7.6650806057879E-04
     3  2.0000000000000E-02  4.1140307106444E-03 -3.0622203088996E-03
     4  3.0000000000000E-02  9.2457370410850E-03 -6.8757174205790E-03
     5  4.0000000000000E-02  1.6409936912600E-02 -1.2188022024861E-02
     6  5.0000000000000E-02  2.5586510652351E-02 -1.8972680669321E-02
     7  6.0000000000000E-02  3.6749688897749E-02 -2.7195877992445E-02
     8  7.0000000000000E-02  4.9868126272615E-02 -3.6816582531381E-02
     9  8.0000000000000E-02  6.4904990977181E-02 -4.7786723435596E-02
    10  9.0000000000000E-02  8.1818070020317E-02 -6.0051397206492E-02
    11  1.0000000000000E-01  1.0055988977602E-01 -7.3549103438464E-02
    12  1.1000000000000E-01  1.2107785150145E-01 -8.8212008399777E-02
    13  1.2000000000000E-01  1.4331438141067E-01 -1.0396623516321E-01
    14  1.3000000000000E-01  1.6720709485713E-01 -1.2073217887684E-01
    15  1.4000000000000E-01  1.9268897413835E-01 -1.3842484565599E-01
    16  1.5000000000000E-01  2.1968855939954E-01 -1.5695421347827E-01
    17  1.6000000000000E-01  2.4813015207742E-01 -1.7622561337595E-01
    18  1.7000000000000E-01  2.7793403029327E-01 -1.9614012914327E-01
    19  1.8000000000000E-01  3.0901667557348E-01 -2.1659501371184E-01
    20  1.9000000000000E-01  3.4129101024818E-01 -2.3748412029398E-01
    21  2.0000000000000E-01  3.7466664485247E-01 -2.5869834635312E-01
    22  2.1000000000000E-01  4.0905013483186E-01 -2.8012608843107E-01
    23  2.2000000000000E-01  4.4434524583201E-01 -3.0165370584398E-01
    24  2.3000000000000E-01  4.8045322683431E-01 -3.2316599125247E-01
    25  2.4000000000000E-01  5.1727309038209E-01 -3.4454664611562E-01
    26  2.5000000000000E-01  5.5470189912740E-01 -3.6567875905268E-01
    27  2.6000000000000E-01  5.9263505791581E-01 -3.8644528516084E-01
    28  2.7000000000000E-01  6.3096661061553E-01 -4.0672952436995E-01
    29  2.8000000000000E-01  6.6958954088827E-01 -4.2641559695636E-01
    30  2.9000000000000E-01  7.0839607609105E-01 -4.4538891438661E-01
    31  3.0000000000000E-01  7.4727799349251E-01 -4.6353664371631E-01
    32  3.1000000000000E-01  7.8612692798192E-01 -4.8074816383029E-01
    33  3.2000000000000E-01  8.2483468044547E-01 -4.9691551187518E-01
    34  3.3000000000000E-01  8.6329352598162E-01 -5.1193381830455E-01
    35  3.4000000000000E-01  9.0139652112554E-01 -5.2570172902860E-01
    36  3.5000000000000E-01  9.3903780925186E-01 -5.3812181323454E-01
    37  3.6000000000000E-01  9.7611292332448E-01 -5.4910095551864E-01
    38  3.7000000000000E-01  1.0125190851631E+00 -5.5855073104708E-01
    39  3.8000000000000E-01  1.0481555003976E+00 -5.6638776253791E-01
    40  3.9000000000000E-01  1.0829236482820E+00 -5.7253405793146E-01
    41  4.0000000000000E-01  1.1167275655457E+00 -5.7691732768991E-01
    42  4.1000000000000E-01  1.1494741234582E+00 -5.7947128073833E-01
    43  4.2000000000000E-01  1.1810732972936E+00 -5.8013589812962E-01
    44  4.3000000000000E-01  1.2114384273808E+00 -5.7885768358276E-01
    45  4.4000000000000E-01  1.2404864709360E+00 -5.7558989010943E-01
    46  4.5000000000000E-01  1.2681382438807E+00 -5.7029272200643E-01
    47  4.6000000000000E-01  1.2943186518539E+00 -5.6293351155234E-01
    48  4.7000000000000E-01  1.3189569096441E+00 -5.5348686980519E-01
    49  4.8000000000000E-01  1.3419867482730E+00 -5.4193481095548E-01
    50  4.9000000000000E-01  1.3633466089828E+00 -5.2826684974413E-01
    51  5.0000000000000E-01  1.3829798233902E+00 -5.1248007151101E-01
    52  5.1000000000000E-01  1.4008347790955E+00 -4.9457917449438E-01
    53  5.2000000000000E-01  1.4168650700546E+00 -4.7457648405791E-01
    54  5.3000000000000E-01  1.4310296310456E+00 -4.5249193857946E-01
    55  5.4000000000000E-01  1.4432928555967E+00 -4.2835304679518E-01
    56  5.5000000000000E-01  1.4536246967688E+00 -4.0219481645577E-01
    57  5.6000000000000E-01  1.4620007502254E+00 -3.7405965421798E-01
    58  5.7000000000000E-01  1.4684023190663E+00 -3.4399723676635E-01
    59  5.8000000000000E-01  1.4728164599416E+00 -3.1206435323686E-01
    60  5.9000000000000E-01  1.4752360100177E+00 -2.7832471909787E-01
    61  6.0000000000000E-01  1.4756595944186E+00 -2.4284876173417E-01
    62  6.1000000000000E-01  1.4740916138280E+00 -2.0571337807804E-01
    63  6.2000000000000E-01  1.4705422120002E+00 -1.6700166473810E-01
    64  6.3000000000000E-01  1.4650272230003E+00 -1.2680262119166E-01
    65  6.4000000000000E-01  1.4575680980655E+00 -8.5210826731054E-02
    66  6.5000000000000E-01  1.4481918120624E+00 -4.2326091987847E-02
    67  6.6000000000000E-01  1.4369307495966E+00  1.7469139978594E-03
    68  6.7000000000000E-01  1.4238225709211E+00  4.6899060043566E-02
    69  6.8000000000000E-01  1.4089100578832E+00  9.3017171145099E-02
    70  6.9000000000000E-01  1.3922409402441E+00  1.3998446740100E-01
    71  7.0000000000000E-01  1.3738677028103E+00  1.8768102191171E-01
    72  7.1000000000000E-01  1.3538473739127E+00  2.3598423583938E-01
    73  7.2000000000000E-01  1.3322412958826E+00  2.8476932862273E-01
    74  7.3000000000000E-01  1.3091148782750E+00  3.3390984114426E-01
    75  7.4000000000000E-01  1.2845373347038E+00  3.8327814944675E-01
    76  7.5000000000000E-01  1.2585814042588E+00  4.3274598639264E-01
    77  7.6000000000000E-01  1.2313230585893E+00  4.8218496845526E-01
    78  7.7000000000000E-01  1.2028411958425E+00  5.3146712462800E-01
    79  7.8000000000000E-01  1.1732173227566E+00  5.8046542423550E-01
    80  7.9000000000000E-01  1.1425352263108E+00  6.2905430023525E-01
    81  8.0000000000000E-01  1.1108806364369E+00  6.7711016440625E-01
    82  8.1000000000000E-01  1.0783408813950E+00  7.2451191064040E-01
    83  8.2000000000000E-01  1.0450045375074E+00  7.7114140237941E-01
    84  8.3000000000000E-01  1.0109610750330E+00  8.1688394008101E-01
    85  8.4000000000000E-01  9.7630050204318E-01  8.6162870445264E-01
    86  8.5000000000000E-01  9.4111300823445E-01  9.0526917106193E-01
    87  8.6000000000000E-01  9.0548861067709E-01  9.4770349182249E-01
    88  8.7000000000000E-01  8.6951680355514E-01  9.8883483876226E-01
    89  8.8000000000000E-01  8.3328621399973E-01  1.0285717054129E+00
    90  8.9000000000000E-01  7.9688426615395E-01  1.0668281611122E+00
    91  9.0000000000000E-01  7.6039685563335E-01  1.1035240534892E+00
    92  9.1000000000000E-01  7.2390803656072E-01  1.1385851544078E+00
    93  9.2000000000000E-01  6.8749972335735E-01  1.1719432446715E+00
    94  9.3000000000000E-01  6.5125140946412E-01  1.2035361328547E+00
    95  9.4000000000000E-01  6.1523990514560E-01  1.2333076037075E+00
    96  9.5000000000000E-01  5.7953909649781E-01  1.2612072916977E+00
    97  9.6000000000000E-01  5.4421972773574E-01  1.2871904753958E+00
    98  9.7000000000000E-01  5.0934920878010E-01  1.3112177885784E+00
    99  9.8000000000000E-01  4.7499145009461E-01  1.3332548441238E+00
   100  9.9000000000000E-01  4.4120672664514E-01  1.3532717669991E+00
   101  1.0000000000000E+00  4.0805157276111E-01  1.3712426328883E+00