Cl    ONCVPSP-4.0.1  r_core=   1.90538   1.87149   1.90538
     17.0000      7.0000      220124    zatom,zion,pspd
     8      11   2     4   600     0    pspcod,pspxc,lmax,lloc,mmax,r2well
  5.99000000  8.00000000  0.00000000    rchrg fchrg qchrg
     2     2     2     0     0    nproj
     1     1           extension_switch
   0                         6.0066603781563E+00  5.3190437583728E-01
     1  0.0000000000000E+00  1.2481071731685E-10 -4.4607836868771E-10
     2  1.0000000000000E-02  5.2767439586298E-02 -1.9819193132695E-02
     3  2.0000000000000E-02  1.0547417264321E-01 -3.9614686625790E-02
     4  3.0000000000000E-02  1.5805941839227E-01 -5.9362234887490E-02
     5  4.0000000000000E-02  2.1046224995426E-01 -7.9036509358090E-02
     6  5.0000000000000E-02  2.6262152725996E-01 -9.8610579252204E-02
     7  6.0000000000000E-02  3.1447583702472E-01 -1.1805541865183E-01
     8  7.0000000000000E-02  3.6596344199297E-01 -1.3733944820369E-01
     9  8.0000000000000E-02  4.1702224153410E-01 -1.5642811922819E-01
    10  9.0000000000000E-02  4.6758974551819E-01 -1.7528354750006E-01
    11  1.0000000000000E-01  5.1760306322002E-01 -1.9386420331868E-01
    12  1.1000000000000E-01  5.6699890879652E-01 -2.1212466375756E-01
    13  1.2000000000000E-01  6.1571362465670E-01 -2.3001543217581E-01
    14  1.3000000000000E-01  6.6368322379884E-01 -2.4748282920007E-01
    15  1.4000000000000E-01  7.1084345192882E-01 -2.6446895845337E-01
    16  1.5000000000000E-01  7.5712986990023E-01 -2.8091174932973E-01
    17  1.6000000000000E-01  8.0247795673390E-01 -2.9674507810183E-01
    18  1.7000000000000E-01  8.4682323318563E-01 -3.1189896761580E-01
    19  1.8000000000000E-01  8.9010140553959E-01 -3.2629986478530E-01
    20  1.9000000000000E-01  9.3224852901499E-01 -3.3987099405947E-01
    21  2.0000000000000E-01  9.7320118988801E-01 -3.5253278401815E-01
    22  2.1000000000000E-01  1.0128967051544E+00 -3.6420336325650E-01
    23  2.2000000000000E-01  1.0512733382926E+00 -3.7479912077185E-01
    24  2.3000000000000E-01  1.0882705294380E+00 -3.8423532516952E-01
    25  2.4000000000000E-01  1.1238291380462E+00 -3.9242679617395E-01
    26  2.5000000000000E-01  1.1578916959136E+00 -3.9928862117582E-01
    27  2.6000000000000E-01  1.1904026682368E+00 -4.0473690887586E-01
    28  2.7000000000000E-01  1.2213087202321E+00 -4.0868957150939E-01
    29  2.8000000000000E-01  1.2505589867045E+00 -4.1106712666025E-01
    30  2.9000000000000E-01  1.2781053418557E+00 -4.1179350930473E-01
    31  3.0000000000000E-01  1.3039026665473E+00 -4.1079688447111E-01
    32  3.1000000000000E-01  1.3279091102041E+00 -4.0801045076099E-01
    33  3.2000000000000E-01  1.3500863445331E+00 -4.0337322495788E-01
    34  3.3000000000000E-01  1.3703998062671E+00 -3.9683079804782E-01
    35  3.4000000000000E-01  1.3888189262058E+00 -3.8833605319361E-01
    36  3.5000000000000E-01  1.4053173419221E+00 -3.7784983653985E-01
    37  3.6000000000000E-01  1.4198730916305E+00 -3.6534157217275E-01
    38  3.7000000000000E-01  1.4324687868761E+00 -3.5078981311658E-01
    39  3.8000000000000E-01  1.4430917618875E+00 -3.3418272090692E-01
    40  3.9000000000000E-01  1.4517341976557E+00 -3.1551846703599E-01
    41  4.0000000000000E-01  1.4583932190391E+00 -2.9480555040609E-01
    42  4.1000000000000E-01  1.4630709634587E+00 -2.7206302584570E-01
    43  4.2000000000000E-01  1.4657746200255E+00 -2.4732063972691E-01
    44  4.3000000000000E-01  1.4665164382428E+00 -2.2061886976300E-01
    45  4.4000000000000E-01  1.4653137057320E+00 -1.9200886714678E-01
    46  4.5000000000000E-01  1.4621886947500E+00 -1.6155230030315E-01
    47  4.6000000000000E-01  1.4571685775892E+00 -1.2932110065845E-01
    48  4.7000000000000E-01  1.4502853112753E+00 -9.5397111962055E-02
    49  4.8000000000000E-01  1.4415754923001E+00 -5.9871645818398E-02
    50  4.9000000000000E-01  1.4310801824427E+00 -2.2844947186487E-02
    51  5.0000000000000E-01  1.4188447070373E+00  1.5574425333316E-02
    52  5.1000000000000E-01  1.4049184273393E+00  5.5270298593493E-02
    53  5.2000000000000E-01  1.3893544889155E+00  9.6119656592254E-02
    54  5.3000000000000E-01  1.3722095482390E+00  1.3799347710651E-01
    55  5.4000000000000E-01  1.3535434799024E+00  1.8075762481481E-01
    56  5.5000000000000E-01  1.3334190670638E+00  2.2427379176331E-01
    57  5.6000000000000E-01  1.3119016779221E+00  2.6840047543475E-01
    58  5.7000000000000E-01  1.2890589311574E+00  3.1299398419839E-01
    59  5.8000000000000E-01  1.2649603533893E+00  3.5790945955525E-01
    60  5.9000000000000E-01  1.2396770317803E+00  4.0300190435100E-01
    61  6.0000000000000E-01  1.2132812649580E+00  4.4812720601469E-01
    62  6.1000000000000E-01  1.1858462154324E+00  4.9314314389455E-01
    63  6.2000000000000E-01  1.1574455666593E+00  5.3791036990525E-01
    64  6.3000000000000E-01  1.1281531878307E+00  5.8229335197158E-01
    65  6.4000000000000E-01  1.0980428093780E+00  6.2616127015050E-01
    66  6.5000000000000E-01  1.0671877120323E+00  6.6938885583187E-01
    67  6.6000000000000E-01  1.0356604321228E+00  7.1185716505265E-01
    68  6.7000000000000E-01  1.0035324855940E+00  7.5345427770422E-01
    69  6.8000000000000E-01  9.7087411299231E-01  7.9407591525725E-01
    70  6.9000000000000E-01  9.3775404742259E-01  8.3362597056637E-01
    71  7.0000000000000E-01  9.0423930719433E-01  8.7201694433516E-01
    72  7.1000000000000E-01  8.7039501458230E-01  9.0917028390974E-01
    73  7.2000000000000E-01  8.3628424181093E-01  9.4501662121497E-01
    74  7.3000000000000E-01  8.0196788504594E-01  9.7949590783493E-01
    75  7.4000000000000E-01  7.6750456683992E-01  1.0125574464587E+00
    76  7.5000000000000E-01  7.3295056713805E-01  1.0441598191459E+00
    77  7.6000000000000E-01  6.9835978260740E-01  1.0742707141008E+00
    78  7.7000000000000E-01  6.6378371371465E-01  1.1028666538655E+00
    79  7.8000000000000E-01  6.2927147864442E-01  1.1299326290335E+00
    80  7.9000000000000E-01  5.9486985282960E-01  1.1554616427346E+00
    81  8.0000000000000E-01  5.6062333255911E-01  1.1794541722335E+00
    82  8.1000000000000E-01  5.2657422084104E-01  1.2019175550075E+00
    83  8.2000000000000E-01  4.9276273343413E-01  1.2228653076031E+00
    84  8.3000000000000E-01  4.5922712272095E-01  1.2423163864184E+00
    85  8.4000000000000E-01  4.2600381688563E-01  1.2602944002925E+00
    86  8.5000000000000E-01  3.9312757167861E-01  1.2768267854074E+00
    87  8.6000000000000E-01  3.6063163190561E-01  1.2919439535030E+00
    88  8.7000000000000E-01  3.2854789966682E-01  1.3056784247762E+00
    89  8.8000000000000E-01  2.9690710629924E-01  1.3180639570666E+00
    90  8.9000000000000E-01  2.6573898493952E-01  1.3291346830212E+00
    91  9.0000000000000E-01  2.3507244062829E-01  1.3389242668835E+00
    92  9.1000000000000E-01  2.0493571491931E-01  1.3474650923585E+00
    93  9.2000000000000E-01  1.7535654203791E-01  1.3547874926728E+00
    94  9.3000000000000E-01  1.4636229375251E-01  1.3609190334760E+00
    95  9.4000000000000E-01  1.1798011027871E-01  1.3658838586259E+00
    96  9.5000000000000E-01  9.0237014726508E-02  1.3697021081658E+00
    97  9.6000000000000E-01  6.3160008825395E-02  1.3723894169493E+00
    98  9.7000000000000E-01  3.6776147916384E-02  1.3739565014038E+00
    99  9.8000000000000E-01  1.1112593482633E-02  1.3744088408614E+00
   100  9.9000000000000E-01 -1.3803358203249E-02  1.3737464587307E+00
   101  1.0000000000000E+00 -3.7944272409481E-02  1.3719638075590E+00
   102  1.0100000000000E+00 -6.1282598002552E-02  1.3690497607414E+00
   103  1.0200000000000E+00 -8.3790715623739E-02  1.3649877123005E+00
   104  1.0300000000000E+00 -1.0544101201035E-01  1.3597557847927E+00
   105  1.0400000000000E+00 -1.2620598011654E-01  1.3533271440142E+00
   106  1.0500000000000E+00 -1.4605834431762E-01  1.3456704178024E+00
   107  1.0600000000000E+00 -1.6497120961637E-01  1.3367502148615E+00
   108  1.0700000000000E+00 -1.8291823341227E-01  1.3265277382175E+00
   109  1.0800000000000E+00 -1.9987381805172E-01  1.3149614866239E+00
   110  1.0900000000000E+00 -2.1581332205168E-01  1.3020080360327E+00
   111  1.1000000000000E+00 -2.3071328758566E-01  1.2876228921100E+00
   112  1.1100000000000E+00 -2.4455168154357E-01  1.2717614037405E+00
   113  1.1200000000000E+00 -2.5730814722874E-01  1.2543797265393E+00
   114  1.1300000000000E+00 -2.6896426354063E-01  1.2354358245796E+00
   115  1.1400000000000E+00 -2.7950380831221E-01  1.2148904978725E+00
   116  1.1500000000000E+00 -2.8891302233038E-01  1.1927084225973E+00
   117  1.1600000000000E+00 -2.9718087046751E-01  1.1688591906976E+00
   118  1.1700000000000E+00 -3.0429929629419E-01  1.1433183352257E+00
   119  1.1800000000000E+00 -3.1026346652893E-01  1.1160683277447E+00
   120  1.1900000000000E+00 -3.1507200171007E-01  1.0870995341903E+00
   121  1.2000000000000E+00 -3.1872718954947E-01  1.0564111158442E+00
   122  1.2100000000000E+00 -3.2123517754552E-01  1.0240118624853E+00
   123  1.2200000000000E+00 -3.2260614159455E-01  9.8992094535703E-01
   124  1.2300000000000E+00 -3.2285442754298E-01  9.5416857831626E-01
   125  1.2400000000000E+00 -3.2199866286555E-01  9.1679657639780E-01
   126  1.2500000000000E+00 -3.2006183593655E-01  8.7785880204468E-01
   127  1.2600000000000E+00 -3.1707134067620E-01  8.3742149038877E-01
   128  1.2700000000000E+00 -3.1305898470176E-01  7.9556344622363E-01
   129  1.2800000000000E+00 -3.0806095948960E-01  7.5237610667250E-01
   130  1.2900000000000E+00 -3.0211777145215E-01  7.0796346499809E-01
   131  1.3000000000000E+00 -2.9527413325411E-01  6.6244185252440E-01
   132  1.3100000000000E+00 -2.8757881512657E-01  6.1593957721941E-01
   133  1.3200000000000E+00 -2.7908445638171E-01  5.6859641910277E-01
   134  1.3300000000000E+00 -2.6984733778053E-01  5.2056298427897E-01
   135  1.3400000000000E+00 -2.5992711585716E-01  4.7199992104230E-01
   136  1.3500000000000E+00 -2.4938652074794E-01  4.2307700312160E-01
   137  1.3600000000000E+00 -2.3829101950809E-01  3.7397208672175E-01
   138  1.3700000000000E+00 -2.2670844731967E-01  3.2486994955913E-01
   139  1.3800000000000E+00 -2.1470860939428E-01  2.7596102155407E-01
   140  1.3900000000000E+00 -2.0236285674896E-01  2.2744001822077E-01
   141  1.4000000000000E+00 -1.8974363937934E-01  1.7950448906831E-01
   142  1.4100000000000E+00 -1.7692404066606E-01  1.3235329447902E-01
   143  1.4200000000000E+00 -1.6397729712566E-01  8.6185025551330E-02
   144  1.4300000000000E+00 -1.5097630784965E-01  4.1196382262376E-02
   145  1.4400000000000E+00 -1.3799313816525E-01 -2.4194739801795E-03
   146  1.4500000000000E+00 -1.2509852219351E-01 -4.4474576784313E-02
   147  1.4600000000000E+00 -1.1236136907368E-01 -8.4787803237154E-02
   148  1.4700000000000E+00 -9.9848277666411E-02 -1.2318649721815E-01
   149  1.4800000000000E+00 -8.7623064538614E-02 -1.5950805039574E-01
   150  1.4900000000000E+00 -7.5746309972912E-02 -1.9360142392830E-01
   151  1.5000000000000E+00 -6.4274926631405E-02 -2.2532859426577E-01
   152  1.5100000000000E+00 -5.3261755339660E-02 -2.5456590700918E-01
   153  1.5200000000000E+00 -4.2755192242271E-02 -2.8120532352836E-01
   154  1.5300000000000E+00 -3.2798851320301E-02 -3.0515554594981E-01
   155  1.5400000000000E+00 -2.3431265951075E-02 -3.2634300721506E-01
   156  1.5500000000000E+00 -1.4685632840883E-02 -3.4471271414348E-01
   157  1.5600000000000E+00 -6.5896012701428E-03 -3.6022893281628E-01
   158  1.5700000000000E+00  8.3488983585176E-04 -3.7287570710995E-01
   159  1.5800000000000E+00  7.5717249550752E-03 -3.8265720283287E-01
   160  1.5900000000000E+00  1.3610673564868E-02 -3.8959787164210E-01
   161  1.6000000000000E+00  1.8947399221219E-02 -3.9374243072081E-01
   162  1.6100000000000E+00  2.3583415579306E-02 -3.9515565606111E-01
   163  1.6200000000000E+00  2.7525989346855E-02 -3.9392198910150E-01
   164  1.6300000000000E+00  3.0787990701151E-02 -3.9014495839529E-01
   165  1.6400000000000E+00  3.3387692239048E-02 -3.8394641991219E-01
   166  1.6500000000000E+00  3.5348518061786E-02 -3.7546562148101E-01
   167  1.6600000000000E+00  3.6698745117054E-02 -3.6485809874649E-01
   168  1.6700000000000E+00  3.7471159423522E-02 -3.5229441181572E-01
   169  1.6800000000000E+00  3.7702670283196E-02 -3.3795873349212E-01
   170  1.6900000000000E+00  3.7433886038069E-02 -3.2204730161491E-01
   171  1.7000000000000E+00  3.6708655346110E-02 -3.0476674952666E-01
   172  1.7100000000000E+00  3.5573578331390E-02 -2.8633233005727E-01
   173  1.7200000000000E+00  3.4077492301145E-02 -2.6696604963115E-01
   174  1.7300000000000E+00  3.2270937014110E-02 -2.4689473015605E-01
   175  1.7400000000000E+00  3.0205604726622E-02 -2.2634801722777E-01
   176  1.7500000000000E+00  2.7933780432670E-02 -2.0555635387382E-01
   177  1.7600000000000E+00  2.5507777849218E-02 -1.8474893955244E-01
   178  1.7700000000000E+00  2.2979376776784E-02 -1.6415169441524E-01
   179  1.7800000000000E+00  2.0399272513505E-02 -1.4398526520644E-01
   180  1.7900000000000E+00  1.7816490579007E-02 -1.2446292365190E-01
   181  1.8000000000000E+00  1.5277994592027E-02 -1.0578909168154E-01
   182  1.8100000000000E+00  1.2827854236555E-02 -8.8156475838858E-02
   183  1.8200000000000E+00  1.0502100548267E-02 -7.1729142004120E-02
   184  1.8300000000000E+00  8.3339477642953E-03 -5.6659160764632E-02
   185  1.8400000000000E+00  6.3605613902932E-03 -4.3108508815228E-02
   186  1.8500000000000E+00  4.6139492720706E-03 -3.1219600319452E-02
   187  1.8600000000000E+00  3.1212980448640E-03 -2.1116192038855E-02
   188  1.8700000000000E+00  1.9045573312840E-03 -1.2901900510485E-02
   189  1.8800000000000E+00  9.8051562971328E-04 -6.6615491822724E-03
   190  1.8900000000000E+00  3.5599448249816E-04 -2.4293933814294E-03
   191  1.9000000000000E+00  5.2553241938692E-05 -3.6130744110280E-04
   192  1.9100000000000E+00 -9.6271078676208E-06  6.6096060738754E-05
   193  1.9200000000000E+00  2.4923268299446E-06 -1.7077941959754E-05
   194  1.9300 -0.  0.
   195  1.9400  0. -0.
   196  1.9500  0. -0.
   197  1.9600  0.  0.
   198  1.9700  0.  0.
   199  1.9800  0.  0.
   200  1.9900  0.  0.
   201  2.0000  0.  0.
   202  2.0100  0.  0.
   203  2.0200  0.  0.
   204  2.0300  0.  0.
   205  2.0400  0.  0.
   206  2.0500  0.  0.
   207  2.0600  0.  0.
   208  2.0700  0.  0.
   209  2.0800  0.  0.
   210  2.0900  0.  0.
   211  2.1000  0.  0.
   212  2.1100  0.  0.
   213  2.1200  0.  0.
   214  2.1300  0.  0.
   215  2.1400  0.  0.
   216  2.1500  0.  0.
   217  2.1600  0.  0.
   218  2.1700  0.  0.
   219  2.1800  0.  0.
   220  2.1900  0.  0.
   221  2.2000  0.  0.
   222  2.2100  0.  0.
   223  2.2200  0.  0.
   224  2.2300  0.  0.
   225  2.2400  0.  0.
   226  2.2500  0.  0.
   227  2.2600  0.  0.
   228  2.2700  0.  0.
   229  2.2800  0.  0.
   230  2.2900  0.  0.
   231  2.3000  0.  0.
   232  2.3100  0.  0.
   233  2.3200  0.  0.
   234  2.3300  0.  0.
   235  2.3400  0.  0.
   236  2.3500  0.  0.
   237  2.3600  0.  0.
   238  2.3700  0.  0.
   239  2.3800  0.  0.
   240  2.3900  0.  0.
   241  2.4000  0.  0.
   242  2.4100  0.  0.
   243  2.4200  0.  0.
   244  2.4300  0.  0.
   245  2.4400  0.  0.
   246  2.4500  0.  0.
   247  2.4600  0.  0.
   248  2.4700  0.  0.
   249  2.4800  0.  0.
   250  2.4900  0.  0.
   251  2.5000  0.  0.
   252  2.5100  0.  0.
   253  2.5200  0.  0.
   254  2.5300  0.  0.
   255  2.5400  0.  0.
   256  2.5500  0.  0.
   257  2.5600  0.  0.
   258  2.5700  0.  0.
   259  2.5800  0.  0.
   260  2.5900  0.  0.
   261  2.6000  0.  0.
   262  2.6100  0.  0.
   263  2.6200  0.  0.
   264  2.6300  0.  0.
   265  2.6400  0.  0.
   266  2.6500  0.  0.
   267  2.6600  0.  0.
   268  2.6700  0.  0.
   269  2.6800  0.  0.
   270  2.6900  0.  0.
   271  2.7000  0.  0.
   272  2.7100  0.  0.
   273  2.7200  0.  0.
   274  2.7300  0.  0.
   275  2.7400  0.  0.
   276  2.7500  0.  0.
   277  2.7600  0.  0.
   278  2.7700  0.  0.
   279  2.7800  0.  0.
   280  2.7900  0.  0.
   281  2.8000  0.  0.
   282  2.8100  0.  0.
   283  2.8200  0.  0.
   284  2.8300  0.  0.
   285  2.8400  0.  0.
   286  2.8500  0.  0.
   287  2.8600  0.  0.
   288  2.8700  0.  0.
   289  2.8800  0.  0.
   290  2.8900  0.  0.
   291  2.9000  0.  0.
   292  2.9100  0.  0.
   293  2.9200  0.  0.
   294  2.9300  0.  0.
   295  2.9400  0.  0.
   296  2.9500  0.  0.
   297  2.9600  0.  0.
   298  2.9700  0.  0.
   299  2.9800  0.  0.
   300  2.9900  0.  0.
   301  3.0000  0.  0.
   302  3.0100  0.  0.
   303  3.0200  0.  0.
   304  3.0300  0.  0.
   305  3.0400  0.  0.
   306  3.0500  0.  0.
   307  3.0600  0.  0.
   308  3.0700  0.  0.
   309  3.0800  0.  0.
   310  3.0900  0.  0.
   311  3.1000  0.  0.
   312  3.1100  0.  0.
   313  3.1200  0.  0.
   314  3.1300  0.  0.
   315  3.1400  0.  0.
   316  3.1500  0.  0.
   317  3.1600  0.  0.
   318  3.1700  0.  0.
   319  3.1800  0.  0.
   320  3.1900  0.  0.
   321  3.2000  0.  0.
   322  3.2100  0.  0.
   323  3.2200  0.  0.
   324  3.2300  0.  0.
   325  3.2400  0.  0.
   326  3.2500  0.  0.
   327  3.2600  0.  0.
   328  3.2700  0.  0.
   329  3.2800  0.  0.
   330  3.2900  0.  0.
   331  3.3000  0.  0.
   332  3.3100  0.  0.
   333  3.3200  0.  0.
   334  3.3300  0.  0.
   335  3.3400  0.  0.
   336  3.3500  0.  0.
   337  3.3600  0.  0.
   338  3.3700  0.  0.
   339  3.3800  0.  0.
   340  3.3900  0.  0.
   341  3.4000  0.  0.
   342  3.4100  0.  0.
   343  3.4200  0.  0.
   344  3.4300  0.  0.
   345  3.4400  0.  0.
   346  3.4500  0.  0.
   347  3.4600  0.  0.
   348  3.4700  0.  0.
   349  3.4800  0.  0.
   350  3.4900  0.  0.
   351  3.5000  0.  0.
   352  3.5100  0.  0.
   353  3.5200  0.  0.
   354  3.5300  0.  0.
   355  3.5400  0.  0.
   356  3.5500  0.  0.
   357  3.5600  0.  0.
   358  3.5700  0.  0.
   359  3.5800  0.  0.
   360  3.5900  0.  0.
   361  3.6000  0.  0.
   362  3.6100  0.  0.
   363  3.6200  0.  0.
   364  3.6300  0.  0.
   365  3.6400  0.  0.
   366  3.6500  0.  0.
   367  3.6600  0.  0.
   368  3.6700  0.  0.
   369  3.6800  0.  0.
   370  3.6900  0.  0.
   371  3.7000  0.  0.
   372  3.7100  0.  0.
   373  3.7200  0.  0.
   374  3.7300  0.  0.
   375  3.7400  0.  0.
   376  3.7500  0.  0.
   377  3.7600  0.  0.
   378  3.7700  0.  0.
   379  3.7800  0.  0.
   380  3.7900  0.  0.
   381  3.8000  0.  0.
   382  3.8100  0.  0.
   383  3.8200  0.  0.
   384  3.8300  0.  0.
   385  3.8400  0.  0.
   386  3.8500  0.  0.
   387  3.8600  0.  0.
   388  3.8700  0.  0.
   389  3.8800  0.  0.
   390  3.8900  0.  0.
   391  3.9000  0.  0.
   392  3.9100  0.  0.
   393  3.9200  0.  0.
   394  3.9300  0.  0.
   395  3.9400  0.  0.
   396  3.9500  0.  0.
   397  3.9600  0.  0.
   398  3.9700  0.  0.
   399  3.9800  0.  0.
   400  3.9900  0.  0.
   401  4.0000  0.  0.
   402  4.0100  0.  0.
   403  4.0200  0.  0.
   404  4.0300  0.  0.
   405  4.0400  0.  0.
   406  4.0500  0.  0.
   407  4.0600  0.  0.
   408  4.0700  0.  0.
   409  4.0800  0.  0.
   410  4.0900  0.  0.
   411  4.1000  0.  0.
   412  4.1100  0.  0.
   413  4.1200  0.  0.
   414  4.1300  0.  0.
   415  4.1400  0.  0.
   416  4.1500  0.  0.
   417  4.1600  0.  0.
   418  4.1700  0.  0.
   419  4.1800  0.  0.
   420  4.1900  0.  0.
   421  4.2000  0.  0.
   422  4.2100  0.  0.
   423  4.2200  0.  0.
   424  4.2300  0.  0.
   425  4.2400  0.  0.
   426  4.2500  0.  0.
   427  4.2600  0.  0.
   428  4.2700  0.  0.
   429  4.2800  0.  0.
   430  4.2900  0.  0.
   431  4.3000  0.  0.
   432  4.3100  0.  0.
   433  4.3200  0.  0.
   434  4.3300  0.  0.
   435  4.3400  0.  0.
   436  4.3500  0.  0.
   437  4.3600  0.  0.
   438  4.3700  0.  0.
   439  4.3800  0.  0.
   440  4.3900  0.  0.
   441  4.4000  0.  0.
   442  4.4100  0.  0.
   443  4.4200  0.  0.
   444  4.4300  0.  0.
   445  4.4400  0.  0.
   446  4.4500  0.  0.
   447  4.4600  0.  0.
   448  4.4700  0.  0.
   449  4.4800  0.  0.
   450  4.4900  0.  0.
   451  4.5000  0.  0.
   452  4.5100  0.  0.
   453  4.5200  0.  0.
   454  4.5300  0.  0.
   455  4.5400  0.  0.
   456  4.5500  0.  0.
   457  4.5600  0.  0.
   458  4.5700  0.  0.
   459  4.5800  0.  0.
   460  4.5900  0.  0.
   461  4.6000  0.  0.
   462  4.6100  0.  0.
   463  4.6200  0.  0.
   464  4.6300  0.  0.
   465  4.6400  0.  0.
   466  4.6500  0.  0.
   467  4.6600  0.  0.
   468  4.6700  0.  0.
   469  4.6800  0.  0.
   470  4.6900  0.  0.
   471  4.7000  0.  0.
   472  4.7100  0.  0.
   473  4.7200  0.  0.
   474  4.7300  0.  0.
   475  4.7400  0.  0.
   476  4.7500  0.  0.
   477  4.7600  0.  0.
   478  4.7700  0.  0.
   479  4.7800  0.  0.
   480  4.7900  0.  0.
   481  4.8000  0.  0.
   482  4.8100  0.  0.
   483  4.8200  0.  0.
   484  4.8300  0.  0.
   485  4.8400  0.  0.
   486  4.8500  0.  0.
   487  4.8600  0.  0.
   488  4.8700  0.  0.
   489  4.8800  0.  0.
   490  4.8900  0.  0.
   491  4.9000  0.  0.
   492  4.9100  0.  0.
   493  4.9200  0.  0.
   494  4.9300  0.  0.
   495  4.9400  0.  0.
   496  4.9500  0.  0.
   497  4.9600  0.  0.
   498  4.9700  0.  0.
   499  4.9800  0.  0.
   500  4.9900  0.  0.
   501  5.0000  0.  0.
   502  5.0100  0.  0.
   503  5.0200  0.  0.
   504  5.0300  0.  0.
   505  5.0400  0.  0.
   506  5.0500  0.  0.
   507  5.0600  0.  0.
   508  5.0700  0.  0.
   509  5.0800  0.  0.
   510  5.0900  0.  0.
   511  5.1000  0.  0.
   512  5.1100  0.  0.
   513  5.1200  0.  0.
   514  5.1300  0.  0.
   515  5.1400  0.  0.
   516  5.1500  0.  0.
   517  5.1600  0.  0.
   518  5.1700  0.  0.
   519  5.1800  0.  0.
   520  5.1900  0.  0.
   521  5.2000  0.  0.
   522  5.2100  0.  0.
   523  5.2200  0.  0.
   524  5.2300  0.  0.
   525  5.2400  0.  0.
   526  5.2500  0.  0.
   527  5.2600  0.  0.
   528  5.2700  0.  0.
   529  5.2800  0.  0.
   530  5.2900  0.  0.
   531  5.3000  0.  0.
   532  5.3100  0.  0.
   533  5.3200  0.  0.
   534  5.3300  0.  0.
   535  5.3400  0.  0.
   536  5.3500  0.  0.
   537  5.3600  0.  0.
   538  5.3700  0.  0.
   539  5.3800  0.  0.
   540  5.3900  0.  0.
   541  5.4000  0.  0.
   542  5.4100  0.  0.
   543  5.4200  0.  0.
   544  5.4300  0.  0.
   545  5.4400  0.  0.
   546  5.4500  0.  0.
   547  5.4600  0.  0.
   548  5.4700  0.  0.
   549  5.4800  0.  0.
   550  5.4900  0.  0.
   551  5.5000  0.  0.
   552  5.5100  0.  0.
   553  5.5200  0.  0.
   554  5.5300  0.  0.
   555  5.5400  0.  0.
   556  5.5500  0.  0.
   557  5.5600  0.  0.
   558  5.5700  0.  0.
   559  5.5800  0.  0.
   560  5.5900  0.  0.
   561  5.6000  0.  0.
   562  5.6100  0.  0.
   563  5.6200  0.  0.
   564  5.6300  0.  0.
   565  5.6400  0.  0.
   566  5.6500  0.  0.
   567  5.6600  0.  0.
   568  5.6700  0.  0.
   569  5.6800  0.  0.
   570  5.6900  0.  0.
   571  5.7000  0.  0.
   572  5.7100  0.  0.
   573  5.7200  0.  0.
   574  5.7300  0.  0.
   575  5.7400  0.  0.
   576  5.7500  0.  0.
   577  5.7600  0.  0.
   578  5.7700  0.  0.
   579  5.7800  0.  0.
   580  5.7900  0.  0.
   581  5.8000  0.  0.
   582  5.8100  0.  0.
   583  5.8200  0.  0.
   584  5.8300  0.  0.
   585  5.8400  0.  0.
   586  5.8500  0.  0.
   587  5.8600  0.  0.
   588  5.8700  0.  0.
   589  5.8800  0.  0.
   590  5.8900  0.  0.
   591  5.9000  0.  0.
   592  5.9100  0.  0.
   593  5.9200  0.  0.
   594  5.9300  0.  0.
   595  5.9400  0.  0.
   596  5.9500  0.  0.
   597  5.9600  0.  0.
   598  5.9700  0.  0.
   599  5.9800  0.  0.
   600  5.9900  0.  0.
   1                         1.1876092110027E+00 -8.5586092421735E-02
     1  0.0000000000000E+00  1.3768569617767E-12 -3.3426049705909E-09
     2  1.0000000000000E-02  1.0479493383576E-03  5.9000424071486E-04
     3  2.0000000000000E-02  4.1888641418287E-03  2.3627945835858E-03
     4  3.0000000000000E-02  9.4139519323358E-03  5.3265966466092E-03
     5  4.0000000000000E-02  1.6708582437728E-02  9.4947642138573E-03
     6  5.0000000000000E-02  2.6052323385797E-02  1.4885252494907E-02
     7  6.0000000000000E-02  3.7418990628857E-02  2.1519893837691E-02
     8  7.0000000000000E-02  5.0776712608569E-02  2.9423488802268E-02
     9  8.0000000000000E-02  6.6088009169258E-02  3.8622728845601E-02
    10  9.0000000000000E-02  8.3309884723116E-02  4.9144969960436E-02
    11  1.0000000000000E-01  1.0239393576222E-01  6.1016879405369E-02
    12  1.1000000000000E-01  1.2328647269940E-01  7.4262980112784E-02
    13  1.2000000000000E-01  1.4592865600254E-01  8.8904119431379E-02
    14  1.3000000000000E-01  1.7025664656411E-01  1.0495589051339E-01
    15  1.4000000000000E-01  1.9620177021990E-01  1.2242703586914E-01
    16  1.5000000000000E-01  2.2369069629721E-01  1.4131786336226E-01
    17  1.6000000000000E-01  2.5264563003383E-01  1.6161870519117E-01
    18  1.7000000000000E-01  2.8298451866422E-01  1.8330845019648E-01
    19  1.8000000000000E-01  3.1462127091960E-01  2.0635317914148E-01
    20  1.9000000000000E-01  3.4746598963310E-01  2.3070493144818E-01
    21  2.0000000000000E-01  3.8142521708141E-01  2.5630063024893E-01
    22  2.1000000000000E-01  4.1640219262999E-01  2.8306119054808E-01
    23  2.2000000000000E-01  4.5229712218087E-01  3.1089083282006E-01
    24  2.3000000000000E-01  4.8900745885097E-01  3.3967662152059E-01
    25  2.4000000000000E-01  5.2642819423543E-01  3.6928824480680E-01
    26  2.5000000000000E-01  5.6445215953525E-01  3.9957804829163E-01
    27  2.6000000000000E-01  6.0297033575288E-01  4.3038133194477E-01
    28  2.7000000000000E-01  6.4187217208390E-01  4.6151691535693E-01
    29  2.8000000000000E-01  6.8104591155834E-01  4.9278797255701E-01
    30  2.9000000000000E-01  7.2037892291316E-01  5.2398313347435E-01
    31  3.0000000000000E-01  7.5975803760818E-01  5.5487784503188E-01
    32  3.1000000000000E-01  7.9906989083252E-01  5.8523598079916E-01
    33  3.2000000000000E-01  8.3820126528892E-01  6.1481168418914E-01
    34  3.3000000000000E-01  8.7703943648910E-01  6.4335142640826E-01
    35  3.4000000000000E-01  9.1547251824597E-01  6.7059625682158E-01
    36  3.5000000000000E-01  9.5338980700939E-01  6.9628422013040E-01
    37  3.6000000000000E-01  9.9068212366069E-01  7.2015291182529E-01
    38  3.7000000000000E-01  1.0272421513593E+00  7.4194214082420E-01
    39  3.8000000000000E-01  1.0629647680228E+00  7.6139666606846E-01
    40  3.9000000000000E-01  1.0977473720180E+00  7.7826897216754E-01
    41  4.0000000000000E-01  1.1314901996519E+00  7.9232204798505E-01
    42  4.1000000000000E-01  1.1640966330659E+00  8.0333213136353E-01
    43  4.2000000000000E-01  1.1954734971711E+00  8.1109138300978E-01
    44  4.3000000000000E-01  1.2255313442976E+00  8.1541045291558E-01
    45  4.4000000000000E-01  1.2541847252885E+00  8.1612090356497E-01
    46  4.5000000000000E-01  1.2813524458233E+00  8.1307745557849E-01
    47  4.6000000000000E-01  1.3069578068327E+00  8.0616002334300E-01
    48  4.7000000000000E-01  1.3309288279446E+00  7.9527551056041E-01
    49  4.8000000000000E-01  1.3531984529908E+00  7.8035933847946E-01
    50  4.9000000000000E-01  1.3737047367036E+00  7.6137668282427E-01
    51  5.0000000000000E-01  1.3923910118332E+00  7.3832339905481E-01
    52  5.1000000000000E-01  1.4092060360294E+00  7.1122661953847E-01
    53  5.2000000000000E-01  1.4241041179487E+00  6.8014501042989E-01
    54  5.3000000000000E-01  1.4370452221646E+00  6.4516868048570E-01
    55  5.4000000000000E-01  1.4479950525866E+00  6.0641873862502E-01
    56  5.5000000000000E-01  1.4569251142132E+00  5.6404650171838E-01
    57  5.6000000000000E-01  1.4638127531755E+00  5.1823235878551E-01
    58  5.7000000000000E-01  1.4686411751485E+00  4.6918430243651E-01
    59  5.8000000000000E-01  1.4713994423319E+00  4.1713614293788E-01
    60  5.9000000000000E-01  1.4720824493234E+00  3.6234542465908E-01
    61  6.0000000000000E-01  1.4706908783205E+00  3.0509106879230E-01
    62  6.1000000000000E-01  1.4672311342006E+00  2.4567077008053E-01
    63  6.2000000000000E-01  1.4617152601303E+00  1.8439817877757E-01
    64  6.3000000000000E-01  1.4541608344548E+00  1.2159990214904E-01
    65  6.4000000000000E-01  1.4445908497042E+00  5.7612362457042E-02
    66  6.5000000000000E-01  1.4330335746350E+00 -7.2214494857939E-03
    67  6.6000000000000E-01  1.4195224002960E+00 -7.2555284488693E-02
    68  6.7000000000000E-01  1.4040956711662E+00 -1.3804296711241E-01
    69  6.8000000000000E-01  1.3867965024649E+00 -2.0334170749006E-01
    70  6.9000000000000E-01  1.3676725847696E+00 -2.6811535066001E-01
    71  7.0000000000000E-01  1.3467759771110E+00 -3.3203752190304E-01
    72  7.1000000000000E-01  1.3241628897268E+00 -3.9479462782530E-01
    73  7.2000000000000E-01  1.2998934576661E+00 -4.5608867474752E-01
    74  7.3000000000000E-01  1.2740315064336E+00 -5.1563986832024E-01
    75  7.4000000000000E-01  1.2466443108452E+00 -5.7318896116353E-01
    76  7.5000000000000E-01  1.2178023482503E+00 -6.2849931868320E-01
    77  7.6000000000000E-01  1.1875790472392E+00 -6.8135867700817E-01
    78  7.7000000000000E-01  1.1560505329176E+00 -7.3158057116557E-01
    79  7.8000000000000E-01  1.1232953697837E+00 -7.7900541611461E-01
    80  7.9000000000000E-01  1.0893943031893E+00 -8.2350122803160E-01
    81  8.0000000000000E-01  1.0544300003097E+00 -8.6496397820875E-01
    82  8.1000000000000E-01  1.0184867914856E+00 -9.0331757703793E-01
    83  8.2000000000000E-01  9.8165041273273E-01 -9.3851349071787E-01
    84  8.3000000000000E-01  9.4400775015132E-01 -9.7052999848282E-01
    85  8.4000000000000E-01  9.0564658689649E-01 -9.9937110322717E-01
    86  8.5000000000000E-01  8.6665535330479E-01 -1.0250651133211E+00
    87  8.6000000000000E-01  8.2712288070504E-01 -1.0476629181108E+00
    88  8.7000000000000E-01  7.8713815937725E-01 -1.0672359839981E+00
    89  8.8000000000000E-01  7.4679010106295E-01 -1.0838741020420E+00
    90  8.9000000000000E-01  7.0616730637295E-01 -1.0976829216518E+00
    91  9.0000000000000E-01  6.6535783738710E-01 -1.1087813081018E+00
    92  9.1000000000000E-01  6.2444899569384E-01 -1.1172985642326E+00
    93  9.2000000000000E-01  5.8352710607748E-01 -1.1233715587848E+00
    94  9.3000000000000E-01  5.4267730602769E-01 -1.1271418052923E+00
    95  9.4000000000000E-01  5.0198334121864E-01 -1.1287525363274E+00