Ar    ONCVPSP-4.0.1  r_core=   1.91046   1.82118   1.91046
     18.0000      8.0000      220318    zatom,zion,pspd
     8      11   2     4   400     0    pspcod,pspxc,lmax,lloc,mmax,r2well
  3.99000000  7.00000000  0.00000000    rchrg fchrg qchrg
     2     2     2     0     0    nproj
     1     1           extension_switch
   0                         5.4255617380066E+00  6.3937514011692E-01
     1  0.0000000000000E+00  1.6182793993735E-10 -4.3438209973434E-10
     2  1.0000000000000E-02  5.2834357708587E-02 -1.5500447112960E-02
     3  2.0000000000000E-02  1.0561098820514E-01 -3.0980983545929E-02
     4  3.0000000000000E-02  1.5827202936273E-01 -4.6421172114806E-02
     5  4.0000000000000E-02  2.1075935240485E-01 -6.1799531280493E-02
     6  5.0000000000000E-02  2.6301443648930E-01 -7.7093034492435E-02
     7  6.0000000000000E-02  3.1497825266638E-01 -9.2276635045250E-02
     8  7.0000000000000E-02  3.6659116014364E-01 -1.0732282443654E-01
     9  8.0000000000000E-02  4.1779281762786E-01 -1.2220123177964E-01
    10  9.0000000000000E-02  4.6852211231639E-01 -1.3687827129215E-01
    11  1.0000000000000E-01  5.1871710887676E-01 -1.5131684425600E-01
    12  1.1000000000000E-01  5.6831502048945E-01 -1.6547610113542E-01
    13  1.2000000000000E-01  6.1725220373568E-01 -1.7931126875413E-01
    14  1.3000000000000E-01  6.6546417879464E-01 -1.9277354658157E-01
    15  1.4000000000000E-01  7.1288567607646E-01 -2.0581007527117E-01
    16  1.5000000000000E-01  7.5945071006181E-01 -2.1836397964204E-01
    17  1.6000000000000E-01  8.0509268075164E-01 -2.3037448731105E-01
    18  1.7000000000000E-01  8.4974450275521E-01 -2.4177712317731E-01
    19  1.8000000000000E-01  8.9333876166552E-01 -2.5250397894719E-01
    20  1.9000000000000E-01  9.3580789699420E-01 -2.6248405587941E-01
    21  2.0000000000000E-01  9.7708441056596E-01 -2.7164367793662E-01
    22  2.1000000000000E-01  1.0171010989123E+00 -2.7990697156684E-01
    23  2.2000000000000E-01  1.0557913078578E+00 -2.8719640741599E-01
    24  2.3000000000000E-01  1.0930892071669E+00 -2.9343339840276E-01
    25  2.4000000000000E-01  1.1289300828137E+00 -2.9853894778180E-01
    26  2.5000000000000E-01  1.1632506441648E+00 -3.0243434008913E-01
    27  2.6000000000000E-01  1.1959893431179E+00 -3.0504186721495E-01
    28  2.7000000000000E-01  1.2270867020275E+00 -3.0628558129283E-01
    29  2.8000000000000E-01  1.2564856470774E+00 -3.0609206563611E-01
    30  2.9000000000000E-01  1.2841318436209E+00 -3.0439121460037E-01
    31  3.0000000000000E-01  1.3099740299181E+00 -3.0111701300842E-01
    32  3.1000000000000E-01  1.3339643456458E+00 -2.9620830564607E-01
    33  3.2000000000000E-01  1.3560586515469E+00 -2.8960954732453E-01
    34  3.3000000000000E-01  1.3762168366212E+00 -2.8127152411000E-01
    35  3.4000000000000E-01  1.3944031093371E+00 -2.7115203654198E-01
    36  3.5000000000000E-01  1.4105862694645E+00 -2.5921653599695E-01
    37  3.6000000000000E-01  1.4247399572916E+00 -2.4543870580117E-01
    38  3.7000000000000E-01  1.4368428771895E+00 -2.2980097924824E-01
    39  3.8000000000000E-01  1.4468789927310E+00 -2.1229498733105E-01
    40  3.9000000000000E-01  1.4548376908406E+00 -1.9292192974349E-01
    41  4.0000000000000E-01  1.4607139127657E+00 -1.7169286353845E-01
    42  4.1000000000000E-01  1.4645082499872E+00 -1.4862890473465E-01
    43  4.2000000000000E-01  1.4662270035567E+00 -1.2376133913595E-01
    44  4.3000000000000E-01  1.4658822057198E+00 -9.7131639650941E-02
    45  4.4000000000000E-01  1.4634916030904E+00 -6.8791388466717E-02
    46  4.5000000000000E-01  1.4590786010431E+00 -3.8802103525721E-02
    47  4.6000000000000E-01  1.4526721694134E+00 -7.2349698651152E-03
    48  4.7000000000000E-01  1.4443067100059E+00  2.5829522508055E-02
    49  4.8000000000000E-01  1.4340218868336E+00  6.0302031429686E-02
    50  4.9000000000000E-01  1.4218624204127E+00  9.6084902224318E-02
    51  5.0000000000000E-01  1.4078778478348E+00  1.3307278928664E-01
    52  5.1000000000000E-01  1.3921222507154E+00  1.7115335370973E-01
    53  5.2000000000000E-01  1.3746539534723E+00  2.1020803014076E-01
    54  5.3000000000000E-01  1.3555351947157E+00  2.5011285518918E-01
    55  5.4000000000000E-01  1.3348317748342E+00  2.9073934893998E-01
    56  5.5000000000000E-01  1.3126126831202E+00  3.3195544044764E-01
    57  5.6000000000000E-01  1.2889497080101E+00  3.7362642751196E-01
    58  5.7000000000000E-01  1.2639170342006E+00  4.1561596057333E-01
    59  5.8000000000000E-01  1.2375908305463E+00  4.5778704021870E-01
    60  5.9000000000000E-01  1.2100488327451E+00  5.0000301756515E-01
    61  6.0000000000000E-01  1.1813699248712E+00  5.4212858668927E-01
    62  6.1000000000000E-01  1.1516337238237E+00  5.8403075829998E-01
    63  6.2000000000000E-01  1.1209201707189E+00  6.2557980400963E-01
    64  6.3000000000000E-01  1.0893091331664E+00  6.6665016084413E-01
    65  6.4000000000000E-01  1.0568800222378E+00  7.0712128604194E-01
    66  6.5000000000000E-01  1.0237114277580E+00  7.4687845272406E-01
    67  6.6000000000000E-01  9.8988077532836E-01  7.8581347766353E-01
    68  6.7000000000000E-01  9.5546400823020E-01  8.2382537313891E-01
    69  6.8000000000000E-01  9.2053529705732E-01  8.6082091571272E-01
    70  6.9000000000000E-01  8.8516677959303E-01  8.9671512572357E-01
    71  7.0000000000000E-01  8.4942833308373E-01  9.3143165230842E-01
    72  7.1000000000000E-01  8.1338738066956E-01  9.6490305986981E-01
    73  7.2000000000000E-01  7.7710873332155E-01  9.9707101305521E-01
    74  7.3000000000000E-01  7.4065446820449E-01  1.0278863585134E+00
    75  7.4000000000000E-01  7.0408384394359E-01  1.0573091029183E+00
    76  7.5000000000000E-01  6.6745325282464E-01  1.0853082879912E+00
    77  7.6000000000000E-01  6.3081620950764E-01  1.1118617644930E+00
    78  7.7000000000000E-01  5.9422337538744E-01  1.1369558683854E+00
    79  7.8000000000000E-01  5.5772261729869E-01  1.1605850035536E+00
    80  7.9000000000000E-01  5.2135909883944E-01  1.1827511366389E+00
    81  8.0000000000000E-01  4.8517540218561E-01  1.2034632106203E+00
    82  8.1000000000000E-01  4.4921167789003E-01  1.2227364848114E+00
    83  8.2000000000000E-01  4.1350581981127E-01  1.2405918098714E+00
    84  8.3000000000000E-01  3.7809366200236E-01  1.2570548472755E+00
    85  8.4000000000000E-01  3.4300919411216E-01  1.2721552434210E+00
    86  8.5000000000000E-01  3.0828479161616E-01  1.2859257691647E+00
    87  8.6000000000000E-01  2.7395145700196E-01  1.2984014360771E+00
    88  8.7000000000000E-01  2.4003906789037E-01  1.3096186010599E+00
    89  8.8000000000000E-01  2.0657662797755E-01  1.3196140711929E+00
    90  8.9000000000000E-01  1.7359251663947E-01  1.3284242207578E+00
    91  9.0000000000000E-01  1.4111473304653E-01  1.3360841323193E+00
    92  9.1000000000000E-01  1.0917113069601E-01  1.3426267735367E+00
    93  9.2000000000000E-01  7.7789638379825E-02  1.3480822210244E+00
    94  9.3000000000000E-01  4.6998463767365E-02  1.3524769420877E+00
    95  9.4000000000000E-01  1.6826275993530E-02  1.3558331445278E+00
    96  9.5000000000000E-01 -1.2697636100164E-02  1.3581682039519E+00
    97  9.6000000000000E-01 -4.1543233120861E-02  1.3594941771407E+00
    98  9.7000000000000E-01 -6.9679624382513E-02  1.3598174090295E+00
    99  9.8000000000000E-01 -9.7074999592050E-02  1.3591382397625E+00
   100  9.9000000000000E-01 -1.2369659487511E-01  1.3574508170888E+00
   101  1.0000000000000E+00 -1.4951069461013E-01  1.3547430181070E+00
   102  1.0100000000000E+00 -1.7448267007356E-01  1.3509964830313E+00
   103  1.0200000000000E+00 -1.9857705541522E-01  1.3461867622797E+00
   104  1.0300000000000E+00 -2.2175766098626E-01  1.3402835767737E+00
   105  1.0400000000000E+00 -2.4398772353896E-01  1.3332511899150E+00
   106  1.0500000000000E+00 -2.6523009231456E-01  1.3250488882805E+00
   107  1.0600000000000E+00 -2.8544744953660E-01  1.3156315666707E+00
   108  1.0700000000000E+00 -3.0460256334084E-01  1.3049504117756E+00
   109  1.0800000000000E+00 -3.2265857070395E-01  1.2929536774005E+00
   110  1.0900000000000E+00 -3.3957928748628E-01  1.2795875429410E+00
   111  1.1000000000000E+00 -3.5532954228797E-01  1.2647970456267E+00
   112  1.1100000000000E+00 -3.6987553043396E-01  1.2485270759772E+00
   113  1.1200000000000E+00 -3.8318518405982E-01  1.2307234249541E+00
   114  1.1300000000000E+00 -3.9522855397020E-01  1.2113338704526E+00
   115  1.1400000000000E+00 -4.0597819868920E-01  1.1903092900724E+00
   116  1.1500000000000E+00 -4.1540957592088E-01  1.1676047865480E+00
   117  1.1600000000000E+00 -4.2350143149138E-01  1.1431808118144E+00
   118  1.1700000000000E+00 -4.3023618075400E-01  1.1170042754332E+00
   119  1.1800000000000E+00 -4.3560027740719E-01  1.0890496230259E+00
   120  1.1900000000000E+00 -4.3958456470344E-01  1.0592998704416E+00
   121  1.2000000000000E+00 -4.4218460411487E-01  1.0277475796412E+00
   122  1.2100000000000E+00 -4.4340097666979E-01  9.9439576269926E-01
   123  1.2200000000000E+00 -4.4323955238019E-01  9.5925870090720E-01
   124  1.2300000000000E+00 -4.4171172344460E-01  9.2236266670620E-01
   125  1.2400000000000E+00 -4.3883459722919E-01  8.8374653707557E-01
   126  1.2500000000000E+00 -4.3463114539923E-01  8.4346228803819E-01
   127  1.2600000000000E+00 -4.2913030599297E-01  8.0157536112525E-01
   128  1.2700000000000E+00 -4.2236703569140E-01  7.5816489393623E-01
   129  1.2800000000000E+00 -4.1438231003814E-01  7.1332380833378E-01
   130  1.2900000000000E+00 -4.0522306990101E-01  6.6715875131878E-01
   131  1.3000000000000E+00 -3.9494211302888E-01  6.1978988520467E-01
   132  1.3100000000000E+00 -3.8359793014262E-01  5.7135052534775E-01
   133  1.3200000000000E+00 -3.7125448560201E-01  5.2198662537767E-01
   134  1.3300000000000E+00 -3.5798094329999E-01  4.7185611157670E-01
   135  1.3400000000000E+00 -3.4385133904687E-01  4.2112806976517E-01
   136  1.3500000000000E+00 -3.2894420131726E-01  3.6998178975541E-01
   137  1.3600000000000E+00 -3.1334212282709E-01  3.1860567409842E-01
   138  1.3700000000000E+00 -2.9713128598702E-01  2.6719601946408E-01
   139  1.3800000000000E+00 -2.8040094582910E-01  2.1595568053290E-01
   140  1.3900000000000E+00 -2.6324287452667E-01  1.6509262773857E-01
   141  1.4000000000000E+00 -2.4575077210881E-01  1.1481841154374E-01
   142  1.4100000000000E+00 -2.2801964841032E-01  6.5346547158036E-02
   143  1.4200000000000E+00 -2.1014518168809E-01  1.6890834696197E-02
   144  1.4300000000000E+00 -1.9222305966980E-01 -3.0336369291422E-02
   145  1.4400000000000E+00 -1.7434830907985E-01 -7.6125912205122E-02
   146  1.4500000000000E+00 -1.5661461990146E-01 -1.2027362039092E-01
   147  1.4600000000000E+00 -1.3911367078454E-01 -1.6258207101569E-01
   148  1.4700000000000E+00 -1.2193446209141E-01 -2.0286234286280E-01
   149  1.4800000000000E+00 -1.0516266308597E-01 -2.4093572805104E-01
   150  1.4900000000000E+00 -8.8879979715558E-02 -2.7663538683461E-01
   151  1.5000000000000E+00 -7.3163549307601E-02 -3.0980792799597E-01
   152  1.5100000000000E+00 -5.8085368307608E-02 -3.4031489788682E-01
   153  1.5200000000000E+00 -4.3711758920549E-02 -3.6803416190763E-01
   154  1.5300000000000E+00 -3.0102880188293E-02 -3.9286116313222E-01
   155  1.5400000000000E+00 -1.7312288643000E-02 -4.1471004387620E-01
   156  1.5500000000000E+00 -5.3865532250553E-03 -4.3351461726286E-01
   157  1.5600000000000E+00  5.6350713527376E-03 -4.4922917724940E-01
   158  1.5700000000000E+00  1.5720909167654E-02 -4.6182913711855E-01
   159  1.5800000000000E+00  2.4847062550185E-02 -4.7131148811137E-01
   160  1.5900000000000E+00  3.2997544059608E-02 -4.7769507164989E-01
   161  1.6000000000000E+00  4.0164339252479E-02 -4.8102066045688E-01
   162  1.6100000000000E+00  4.6347399218594E-02 -4.8135084580868E-01
   163  1.6200000000000E+00  5.1554562569558E-02 -4.7876973013158E-01
   164  1.6300000000000E+00  5.5801407285529E-02 -4.7338242615364E-01
   165  1.6400000000000E+00  5.9111033547817E-02 -4.6531436582959E-01
   166  1.6500000000000E+00  6.1513779401528E-02 -4.5471042424681E-01
   167  1.6600000000000E+00  6.3046871795192E-02 -4.4173386567111E-01
   168  1.6700000000000E+00  6.3754016226060E-02 -4.2656512078428E-01
   169  1.6800000000000E+00  6.3684928872716E-02 -4.0940040597733E-01
   170  1.6900000000000E+00  6.2894815714020E-02 -3.9045019727659E-01
   171  1.7000000000000E+00  6.1443803708051E-02 -3.6993757307356E-01
   172  1.7100000000000E+00  5.9396329630448E-02 -3.4809644128746E-01
   173  1.7200000000000E+00  5.6820492642536E-02 -3.2516966789444E-01
   174  1.7300000000000E+00  5.3787377070339E-02 -3.0140712489486E-01
   175  1.7400000000000E+00  5.0370352221534E-02 -2.7706367674749E-01
   176  1.7500000000000E+00  4.6644356344530E-02 -2.5239712506465E-01
   177  1.7600000000000E+00  4.2685172171624E-02 -2.2766613237518E-01
   178  1.7700000000000E+00  3.8568701304798E-02 -2.0312814503798E-01
   179  1.7800000000000E+00  3.4370241644299E-02 -1.7903732354304E-01
   180  1.7900000000000E+00  3.0163791229411E-02 -1.5564256929353E-01
   181  1.8000000000000E+00  2.6021258894456E-02 -1.3318518395800E-01
   182  1.8100000000000E+00  2.2011079332712E-02 -1.1189459409441E-01
   183  1.8200000000000E+00  1.8195938784412E-02 -9.1982143809940E-02
   184  1.8300000000000E+00  1.4629694367059E-02 -7.3633544217481E-02
   185  1.8400000000000E+00  1.1365359054964E-02 -5.7026927106153E-02
   186  1.8500000000000E+00  8.4506833337786E-03 -4.2322631089156E-02
   187  1.8600000000000E+00  5.9258909162506E-03 -2.9657782519125E-02
   188  1.8700000000000E+00  3.8235303446675E-03 -1.9145707904739E-02
   189  1.8800000000000E+00  2.1685947535576E-03 -1.0877530825573E-02
   190  1.8900000000000E+00  9.7340522323356E-04 -4.8967348757335E-03
   191  1.9000000000000E+00  2.5591855550061E-04 -1.2929045775682E-03
   192  1.9100000000000E+00  3.6298776837194E-06 -1.8535501688862E-05
   193  1.9200000000000E+00 -5.2461657292982E-06  2.6668129905853E-05
   194  1.9300000000000E+00  3.3035327665062E-06 -1.6730346513021E-05
   195  1.94 -0.  0.
   196  1.95  0. -0.
   197  1.96  0.  0.
   198  1.97  0.  0.
   199  1.98  0.  0.
   200  1.99  0.  0.
   201  2.00  0.  0.
   202  2.01  0.  0.
   203  2.02  0.  0.
   204  2.03  0.  0.
   205  2.04  0.  0.
   206  2.05  0.  0.
   207  2.06  0.  0.
   208  2.07  0.  0.
   209  2.08  0.  0.
   210  2.09  0.  0.
   211  2.10  0.  0.
   212  2.11  0.  0.
   213  2.12  0.  0.
   214  2.13  0.  0.
   215  2.14  0.  0.
   216  2.15  0.  0.
   217  2.16  0.  0.
   218  2.17  0.  0.
   219  2.18  0.  0.
   220  2.19  0.  0.
   221  2.20  0.  0.
   222  2.21  0.  0.
   223  2.22  0.  0.
   224  2.23  0.  0.
   225  2.24  0.  0.
   226  2.25  0.  0.
   227  2.26  0.  0.
   228  2.27  0.  0.
   229  2.28  0.  0.
   230  2.29  0.  0.
   231  2.30  0.  0.
   232  2.31  0.  0.
   233  2.32  0.  0.
   234  2.33  0.  0.
   235  2.34  0.  0.
   236  2.35  0.  0.
   237  2.36  0.  0.
   238  2.37  0.  0.
   239  2.38  0.  0.
   240  2.39  0.  0.
   241  2.40  0.  0.
   242  2.41  0.  0.
   243  2.42  0.  0.
   244  2.43  0.  0.
   245  2.44  0.  0.
   246  2.45  0.  0.
   247  2.46  0.  0.
   248  2.47  0.  0.
   249  2.48  0.  0.
   250  2.49  0.  0.
   251  2.50  0.  0.
   252  2.51  0.  0.
   253  2.52  0.  0.
   254  2.53  0.  0.
   255  2.54  0.  0.
   256  2.55  0.  0.
   257  2.56  0.  0.
   258  2.57  0.  0.
   259  2.58  0.  0.
   260  2.59  0.  0.
   261  2.60  0.  0.
   262  2.61  0.  0.
   263  2.62  0.  0.
   264  2.63  0.  0.
   265  2.64  0.  0.
   266  2.65  0.  0.
   267  2.66  0.  0.
   268  2.67  0.  0.
   269  2.68  0.  0.
   270  2.69  0.  0.
   271  2.70  0.  0.
   272  2.71  0.  0.
   273  2.72  0.  0.
   274  2.73  0.  0.
   275  2.74  0.  0.
   276  2.75  0.  0.
   277  2.76  0.  0.
   278  2.77  0.  0.
   279  2.78  0.  0.
   280  2.79  0.  0.
   281  2.80  0.  0.
   282  2.81  0.  0.
   283  2.82  0.  0.
   284  2.83  0.  0.
   285  2.84  0.  0.
   286  2.85  0.  0.
   287  2.86  0.  0.
   288  2.87  0.  0.
   289  2.88  0.  0.
   290  2.89  0.  0.
   291  2.90  0.  0.
   292  2.91  0.  0.
   293  2.92  0.  0.
   294  2.93  0.  0.
   295  2.94  0.  0.
   296  2.95  0.  0.
   297  2.96  0.  0.
   298  2.97  0.  0.
   299  2.98  0.  0.
   300  2.99  0.  0.
   301  3.00  0.  0.
   302  3.01  0.  0.
   303  3.02  0.  0.
   304  3.03  0.  0.
   305  3.04  0.  0.
   306  3.05  0.  0.
   307  3.06  0.  0.
   308  3.07  0.  0.
   309  3.08  0.  0.
   310  3.09  0.  0.
   311  3.10  0.  0.
   312  3.11  0.  0.
   313  3.12  0.  0.
   314  3.13  0.  0.
   315  3.14  0.  0.
   316  3.15  0.  0.
   317  3.16  0.  0.
   318  3.17  0.  0.
   319  3.18  0.  0.
   320  3.19  0.  0.
   321  3.20  0.  0.
   322  3.21  0.  0.
   323  3.22  0.  0.
   324  3.23  0.  0.
   325  3.24  0.  0.
   326  3.25  0.  0.
   327  3.26  0.  0.
   328  3.27  0.  0.
   329  3.28  0.  0.
   330  3.29  0.  0.
   331  3.30  0.  0.
   332  3.31  0.  0.
   333  3.32  0.  0.
   334  3.33  0.  0.
   335  3.34  0.  0.
   336  3.35  0.  0.
   337  3.36  0.  0.
   338  3.37  0.  0.
   339  3.38  0.  0.
   340  3.39  0.  0.
   341  3.40  0.  0.
   342  3.41  0.  0.
   343  3.42  0.  0.
   344  3.43  0.  0.
   345  3.44  0.  0.
   346  3.45  0.  0.
   347  3.46  0.  0.
   348  3.47  0.  0.
   349  3.48  0.  0.
   350  3.49  0.  0.
   351  3.50  0.  0.
   352  3.51  0.  0.
   353  3.52  0.  0.
   354  3.53  0.  0.
   355  3.54  0.  0.
   356  3.55  0.  0.
   357  3.56  0.  0.
   358  3.57  0.  0.
   359  3.58  0.  0.
   360  3.59  0.  0.
   361  3.60  0.  0.
   362  3.61  0.  0.
   363  3.62  0.  0.
   364  3.63  0.  0.
   365  3.64  0.  0.
   366  3.65  0.  0.
   367  3.66  0.  0.
   368  3.67  0.  0.
   369  3.68  0.  0.
   370  3.69  0.  0.
   371  3.70  0.  0.
   372  3.71  0.  0.
   373  3.72  0.  0.
   374  3.73  0.  0.
   375  3.74  0.  0.
   376  3.75  0.  0.
   377  3.76  0.  0.
   378  3.77  0.  0.
   379  3.78  0.  0.
   380  3.79  0.  0.
   381  3.80  0.  0.
   382  3.81  0.  0.
   383  3.82  0.  0.
   384  3.83  0.  0.
   385  3.84  0.  0.
   386  3.85  0.  0.
   387  3.86  0.  0.
   388  3.87  0.  0.
   389  3.88  0.  0.
   390  3.89  0.  0.
   391  3.90  0.  0.
   392  3.91  0.  0.
   393  3.92  0.  0.
   394  3.93  0.  0.
   395  3.94  0.  0.
   396  3.95  0.  0.
   397  3.96  0.  0.
   398  3.97  0.  0.
   399  3.98  0.  0.
   400  3.99  0.  0.
   1                         1.1065335846913E+00 -5.5310270118543E-02
     1  0.0000000000000E+00  3.2313733633327E-10  6.1076728050113E-10
     2  1.0000000000000E-02  1.3717511961209E-03  3.9753505557612E-04
     3  2.0000000000000E-02  5.4816642452217E-03  1.5870317852495E-03
     4  3.0000000000000E-02  1.2313743238990E-02  3.5591966393330E-03
     5  4.0000000000000E-02  2.1841413854990E-02  6.2986459069639E-03
     6  5.0000000000000E-02  3.4027651037895E-02  9.7840628618109E-03
     7  6.0000000000000E-02  4.8825156546656E-02  1.3988415453959E-02
     8  7.0000000000000E-02  6.6176585174197E-02  1.8879232265937E-02
     9  8.0000000000000E-02  8.6014818123054E-02  2.4418933840078E-02
    10  9.0000000000000E-02  1.0826328171108E-01  3.0565215905306E-02
    11  1.0000000000000E-01  1.3283630928775E-01  3.7271480488639E-02
    12  1.1000000000000E-01  1.5963954396694E-01  4.4487310397137E-02
    13  1.2000000000000E-01  1.8857037952813E-01  5.2158982104223E-02
    14  1.3000000000000E-01  2.1951843660716E-01  6.0230011675271E-02
    15  1.4000000000000E-01  2.5236607109173E-01  6.8641728025392E-02
    16  1.5000000000000E-01  2.8698891145820E-01  7.7333867521947E-02
    17  1.6000000000000E-01  3.2325642163409E-01  8.6245183725333E-02
    18  1.7000000000000E-01  3.6103248585001E-01  9.5314065912362E-02
    19  1.8000000000000E-01  4.0017601185124E-01  1.0447915994008E-01
    20  1.9000000000000E-01  4.4054154877879E-01  1.1367998499493E-01
    21  2.0000000000000E-01  4.8197991599800E-01  1.2285753982338E-01
    22  2.1000000000000E-01  5.2433883915279E-01  1.3195489216282E-01
    23  2.2000000000000E-01  5.6746358975348E-01  1.4091774527848E-01
    24  2.3000000000000E-01  6.1119762466537E-01  1.4969497576495E-01
    25  2.4000000000000E-01  6.5538322195326E-01  1.5823913708595E-01
    26  2.5000000000000E-01  6.9986210965227E-01  1.6650692369771E-01
    27  2.6000000000000E-01  7.4447608417652E-01  1.7445959103057E-01
    28  2.7000000000000E-01  7.8906761524195E-01  1.8206332707914E-01
    29  2.8000000000000E-01  8.3348043436714E-01  1.8928957187507E-01
    30  2.9000000000000E-01  8.7756010422253E-01  1.9611528167643E-01
    31  3.0000000000000E-01  9.2115456632344E-01  2.0252313530332E-01
    32  3.1000000000000E-01  9.6411466480149E-01  2.0850168066936E-01
    33  3.2000000000000E-01  1.0062946442413E+00  2.1404542020045E-01
    34  3.3000000000000E-01  1.0475526198305E+00  2.1915483448557E-01
    35  3.4000000000000E-01  1.0877510183403E+00  2.2383634416518E-01
    36  3.5000000000000E-01  1.1267569887253E+00  2.2810221072043E-01
    37  3.6000000000000E-01  1.1644427814056E+00  2.3197037747843E-01
    38  3.7000000000000E-01  1.2006860955662E+00  2.3546425278231E-01
    39  3.8000000000000E-01  1.2353703940758E+00  2.3861243788930E-01
    40  3.9000000000000E-01  1.2683851858879E+00  2.4144840274313E-01
    41  4.0000000000000E-01  1.2996262760386E+00  2.4401011331627E-01
    42  4.1000000000000E-01  1.3289959835919E+00  2.4633961472540E-01
    43  4.2000000000000E-01  1.3564033281111E+00  2.4848257478421E-01
    44  4.3000000000000E-01  1.3817641854408E+00  2.5048779306728E-01
    45  4.4000000000000E-01  1.4050014137729E+00  2.5240668091174E-01
    46  4.5000000000000E-01  1.4260449511431E+00  2.5429271807667E-01
    47  4.6000000000000E-01  1.4448318856503E+00  2.5620089200999E-01
    48  4.7000000000000E-01  1.4613064998181E+00  2.5818712583716E-01
    49  4.8000000000000E-01  1.4754202906223E+00  2.6030770128203E-01
    50  4.9000000000000E-01  1.4871319667862E+00  2.6261868275904E-01
    51  5.0000000000000E-01  1.4964074250016E+00  2.6517534883430E-01
    52  5.1000000000000E-01  1.5032197067648E+00  2.6803163714441E-01
    53  5.2000000000000E-01  1.5075489375249E+00  2.7123960868473E-01
    54  5.3000000000000E-01  1.5093822498274E+00  2.7484893713718E-01
    55  5.4000000000000E-01  1.5087136920963E+00  2.7890642860275E-01
    56  5.5000000000000E-01  1.5055441246425E+00  2.8345557673986E-01
    57  5.6000000000000E-01  1.4998811044070E+00  2.8853615789022E-01
    58  5.7000000000000E-01  1.4917387598507E+00  2.9418387030417E-01
    59  5.8000000000000E-01  1.4811376572912E+00  3.0043002106082E-01
    60  5.9000000000000E-01  1.4681046598614E+00  3.0730126372412E-01
    61  6.0000000000000E-01  1.4526727801233E+00  3.1481938918561E-01
    62  6.1000000000000E-01  1.4348810272266E+00  3.2300117152941E-01
    63  6.2000000000000E-01  1.4147742493420E+00  3.3185827011778E-01
    64  6.3000000000000E-01  1.3924029719414E+00  3.4139718844654E-01
    65  6.4000000000000E-01  1.3678232323352E+00  3.5161928966392E-01
    66  6.5000000000000E-01  1.3410964107131E+00  3.6252086799289E-01
    67  6.6000000000000E-01  1.3122890577774E+00  3.7409327465165E-01
    68  6.7000000000000E-01  1.2814727189034E+00  3.8632309623857E-01
    69  6.8000000000000E-01  1.2487237546179E+00  3.9919238294251E-01
    70  6.9000000000000E-01  1.2141231570479E+00  4.1267892336383E-01
    71  7.0000000000000E-01  1.1777563618740E+00  4.2675656219378E-01
    72  7.1000000000000E-01  1.1397130552104E+00  4.4139555650430E-01
    73  7.2000000000000E-01  1.1000869747449E+00  4.5656296595385E-01
    74  7.3000000000000E-01  1.0589757043969E+00  4.7222307182270E-01
    75  7.4000000000000E-01  1.0164804616993E+00  4.8833781945725E-01
    76  7.5000000000000E-01  9.7270587707525E-01  5.0486727843190E-01
    77  7.6000000000000E-01  9.2775976416997E-01  5.2177011453218E-01
    78  7.7000000000000E-01  8.8175288040831E-01  5.3900406752615E-01
    79  7.8000000000000E-01  8.3479867698201E-01  5.5652642862530E-01
    80  7.9000000000000E-01  7.8701303752560E-01  5.7429451154219E-01
    81  8.0000000000000E-01  7.3851400481850E-01  5.9226611112829E-01
    82  8.1000000000000E-01  6.8942149494988E-01  6.1039994372547E-01
    83  8.2000000000000E-01  6.3985699850348E-01  6.2865606358232E-01
    84  8.3000000000000E-01  5.8994326845934E-01  6.4699624997274E-01
    85  8.4000000000000E-01  5.3980399466742E-01  6.6538436000572E-01
    86  8.5000000000000E-01  4.8956346492244E-01  6.8378664252760E-01
    87  8.6000000000000E-01  4.3934621285828E-01  7.0217200898694E-01
    88  8.7000000000000E-01  3.8927665308083E-01  7.2051225765332E-01
    89  8.8000000000000E-01  3.3947870416943E-01  7.3878224814873E-01
    90  8.9000000000000E-01  2.9007540039444E-01  7.5696002385692E-01
    91  9.0000000000000E-01  2.4118849322116E-01  7.7502688041698E-01
    92  9.1000000000000E-01  1.9293804389387E-01  7.9296737917299E-01
    93  9.2000000000000E-01  1.4544200861626E-01  8.1076930513801E-01
    94  9.3000000000000E-01  9.8815818062475E-02  8.2842356972599E-01
    95  9.4000000000000E-01  5.3171953163250E-02  8.4592405920408E-01
    96  9.5000000000000E-01  8.6195193118918E-03  8.6326743051348E-01
    97  9.6000000000000E-01 -3.4736178679300E-02  8.8045285678636E-01
    98  9.7000000000000E-01 -7.6794058370740E-02  8.9748172554875E-01
    99  9.8000000000000E-01 -1.1745767558366E-01  9.1435729322995E-01
   100  9.9000000000000E-01 -1.5663563160341E-01  9.3108430019461E-01
   101  1.0000000000000E+00 -1.9424196881139E-01  9.4766855106778E-01
   102  1.0100000000000E+00 -2.3019655178079E-01  9.6411646562336E-01
   103  1.0200000000000E+00 -2.6442543082015E-01  9.8043460595522E-01
   104  1.0300000000000E+00 -2.9686118492859E-01  9.9662918603280E-01
   105  1.0400000000000E+00 -3.2744324113665E-01  1.0127055700622E+00
   106  1.0500000000000E+00 -3.5611816725003E-01  1.0286677663195E+00
   107  1.0600000000000E+00 -3.8283993508850E-01  1.0445179232951E+00
   108  1.0700000000000E+00 -4.0757015142236E-01  1.0602558350835E+00
   109  1.0800000000000E+00 -4.3027825394955E-01  1.0758784629658E+00
   110  1.0900000000000E+00 -4.5094166983325E-01  1.0913794800699E+00
   111  1.1000000000000E+00 -4.6954593452506E-01  1.1067488458459E+00
   112  1.1100000000000E+00 -4.8608476883812E-01  1.1219724168685E+00
   113  1.1200000000000E+00 -5.0056011250042E-01  1.1370316001768E+00
   114  1.1300000000000E+00 -5.1298211271386E-01  1.1519030549800E+00
   115  1.1400000000000E+00 -5.2336906656356E-01  1.1665584481083E+00
   116  1.1500000000000E+00 -5.3174731646433E-01  1.1809642680670E+00
   117  1.1600000000000E+00 -5.3815109819271E-01  1.1950817019702E+00
   118  1.1700000000000E+00 -5.4262234143150E-01  1.2088665789910E+00
   119  1.1800000000000E+00 -5.4521042314431E-01  1.2222693832732E+00
   120  1.1900000000000E+00 -5.4597187449972E-01  1.2352353385148E+00
   121  1.2000000000000E+00 -5.4497004246898E-01  1.2477045656647E+00
   122  1.2100000000000E+00 -5.4227470763144E-01  1.2596123143726E+00
   123  1.2200000000000E+00 -5.3796166012554E-01  1.2708892680144E+00
   124  1.2300000000000E+00 -5.3211223608342E-01  1.2814619212867E+00
   125  1.2400000000000E+00 -5.2481281727555E-01  1.2912530285307E+00
   126  1.2500000000000E+00 -5.1615429706399E-01  1.3001821201237E+00
   127  1.2600000000000E+00 -5.0623151611955E-01  1.3081660834659E+00
   128  1.2700000000000E+00 -4.9514267168828E-01  1.3151198043092E+00
   129  1.2800000000000E+00 -4.8298870449815E-01  1.3209568634264E+00
   130  1.2900000000000E+00 -4.6987266767208E-01  1.3255902829118E+00
   131  1.3000000000000E+00 -4.5589908225437E-01  1.3289333157502E+00
   132  1.3100000000000E+00 -4.4117328416146E-01  1.3309002716954E+00
   133  1.3200000000000E+00 -4.2580076753376E-01  1.3314073719676E+00
   134  1.3300000000000E+00 -4.0988652958754E-01  1.3303736248220E+00
   135  1.3400000000000E+00 -3.9353442214484E-01  1.3277217136599E+00
   136  1.3500000000000E+00 -3.7684651505269E-01  1.3233788890575E+00
   137  1.3600000000000E+00 -3.5992247668908E-01  1.3172778558771E+00
   138  1.3700000000000E+00 -3.4285897669140E-01  1.3093576465074E+00
   139  1.3800000000000E+00 -3.2574911593415E-01  1.2995644712534E+00
   140  1.3900000000000E+00 -3.0868188862466E-01  1.2878525369645E+00
   141  1.4000000000000E+00 -2.9174168118129E-01  1.2741848251533E+00
   142  1.4100000000000E+00 -2.7500781230749E-01  1.2585338211157E+00
   143  1.4200000000000E+00 -2.5855411837953E-01  1.2408821859120E+00
   144  1.4300000000000E+00 -2.4244858792858E-01  1.2212233635101E+00
   145  1.4400000000000E+00 -2.2675304861832E-01  1.1995621159174E+00
   146  1.4500000000000E+00 -2.1152290970477E-01  1.1759149797386E+00
   147  1.4600000000000E+00 -1.9680696251605E-01  1.1503106382803E+00
   148  1.4700000000000E+00 -1.8264724100955E-01  1.1227902040789E+00
   149  1.4800000000000E+00 -1.6907894395934E-01  1.0934074075478E+00
   150  1.4900000000000E+00 -1.5613041979966E-01  1.0622286883118E+00
   151  1.5000000000000E+00 -1.4382321460423E-01  1.0293331867211E+00
   152  1.5100000000000E+00 -1.3217218312614E-01  9.9481263399068E-01
   153  1.5200000000000E+00 -1.2118566225782E-01  9.5877114040460E-01
   154  1.5300000000000E+00 -1.1086570570491E-01  9.2132488202330E-01
   155  1.5400000000000E+00 -1.0120837810414E-01  8.8260168735176E-01
   156  1.5500000000000E+00 -9.2204106260819E-02  8.4274052643532E-01
   157  1.5600000000000E+00 -8.3838084639536E-02  8.0189090585162E-01
   158  1.5700000000000E+00 -7.6090731720067E-02  7.6021217404241E-01
   159  1.5800000000000E+00 -6.8938193330784E-02  7.1787274237572E-01
   160  1.5900000000000E+00 -6.2352888601788E-02  6.7504922822988E-01
   161  1.6000000000000E+00 -5.6304093743454E-02  6.3192552724042E-01
   162  1.6100000000000E+00 -5.0758558456693E-02  5.8869182264000E-01
   163  1.6200000000000E+00 -4.5681149423706E-02  5.4554354033997E-01
   164  1.6300000000000E+00 -4.1035515016072E-02  5.0268025904363E-01
   165  1.6400000000000E+00 -3.6784765093737E-02  4.6030458523794E-01
   166  1.6500000000000E+00 -3.2892159556587E-02  4.1862100337638E-01