K     ONCVPSP-4.0.1  r_core=   2.20490   2.67009   2.67009
     19.0000      9.0000      210704    zatom,zion,pspd
     8      11   2     4   400     0    pspcod,pspxc,lmax,lloc,mmax,r2well
  3.99000000  5.00000000  0.00000000    rchrg fchrg qchrg
     2     2     2     0     0    nproj
     1     1           extension_switch
   0                         2.5720865640738E+01  7.8302622455531E-01
     1  0.0000000000000E+00  8.7204743426383E-11 -8.6850068803379E-11
     2  1.0000000000000E-02  4.5339065594109E-02  1.2118145265797E-02
     3  2.0000000000000E-02  9.0633375467957E-02  2.4224783003133E-02
     4  3.0000000000000E-02  1.3583802457792E-01  3.6308618907773E-02
     5  4.0000000000000E-02  1.8090781152321E-01  4.8358782779671E-02
     6  5.0000000000000E-02  2.2579709606886E-01  6.0365034736595E-02
     7  6.0000000000000E-02  2.7045966344841E-01  7.2317964483595E-02
     8  7.0000000000000E-02  3.1484859760295E-01  8.4209181426296E-02
     9  8.0000000000000E-02  3.5891616542607E-01  9.6031493502884E-02
    10  9.0000000000000E-02  4.0261371397672E-01  1.0777907271672E-01
    11  1.0000000000000E-01  4.4589158249510E-01  1.1944760547786E-01
    12  1.1000000000000E-01  4.8869903091152E-01  1.3103442600633E-01
    13  1.2000000000000E-01  5.3098418637638E-01  1.4253863121116E-01
    14  1.3000000000000E-01  5.7269400916181E-01  1.5396117563602E-01
    15  1.4000000000000E-01  6.1377427909455E-01  1.6530494525262E-01
    16  1.5000000000000E-01  6.5416960347599E-01  1.7657480908557E-01
    17  1.6000000000000E-01  6.9382344723219E-01  1.8777764786517E-01
    18  1.7000000000000E-01  7.3267818581445E-01  1.9892235912521E-01
    19  1.8000000000000E-01  7.7067518114310E-01  2.1001983839067E-01
    20  1.9000000000000E-01  8.0775488065495E-01  2.2108293633103E-01
    21  2.0000000000000E-01  8.4385693928008E-01  2.3212639198886E-01
    22  2.1000000000000E-01  8.7892036393975E-01  2.4316674242653E-01
    23  2.2000000000000E-01  9.1288367992474E-01  2.5422220936543E-01
    24  2.3000000000000E-01  9.4568511828609E-01  2.6531256361858E-01
    25  2.4000000000000E-01  9.7726282314824E-01  2.7645896833890E-01
    26  2.5000000000000E-01  1.0075550776426E+00  2.8768380231649E-01
    27  2.6000000000000E-01  1.0365005469570E+00  2.9901046476093E-01
    28  2.7000000000000E-01  1.0640385368054E+00  3.1046316319345E-01
    29  2.8000000000000E-01  1.0901092654493E+00  3.2206668624949E-01
    30  2.9000000000000E-01  1.1146541472393E+00  3.3384616335167E-01
    31  3.0000000000000E-01  1.1376160855042E+00  3.4582681335564E-01
    32  3.1000000000000E-01  1.1589397724918E+00  3.5803368439534E-01
    33  3.2000000000000E-01  1.1785719939608E+00  3.7049138725765E-01
    34  3.3000000000000E-01  1.1964619359403E+00  3.8322382470036E-01
    35  3.4000000000000E-01  1.2125614911131E+00  3.9625391918811E-01
    36  3.5000000000000E-01  1.2268255622413E+00  4.0960334156064E-01
    37  3.6000000000000E-01  1.2392123600345E+00  4.2329224316381E-01
    38  3.7000000000000E-01  1.2496836928731E+00  4.3733899396702E-01
    39  3.8000000000000E-01  1.2582052458257E+00  4.5175992916109E-01
    40  3.9000000000000E-01  1.2647468464586E+00  4.6656910667761E-01
    41  4.0000000000000E-01  1.2692827150089E+00  4.8177807799564E-01
    42  4.1000000000000E-01  1.2717916965945E+00  4.9739567450384E-01
    43  4.2000000000000E-01  1.2722574732548E+00  5.1342781156806E-01
    44  4.3000000000000E-01  1.2706687537562E+00  5.2987731231479E-01
    45  4.4000000000000E-01  1.2670194392602E+00  5.4674375298325E-01
    46  4.5000000000000E-01  1.2613087631281E+00  5.6402333152270E-01
    47  4.6000000000000E-01  1.2535414033332E+00  5.8170876091967E-01
    48  4.7000000000000E-01  1.2437275661630E+00  5.9978918853210E-01
    49  4.8000000000000E-01  1.2318830401148E+00  6.1825014248860E-01
    50  4.9000000000000E-01  1.2180292191270E+00  6.3707350597907E-01
    51  5.0000000000000E-01  1.2021930945280E+00  6.5623752002408E-01
    52  5.1000000000000E-01  1.1844072153412E+00  6.7571681506291E-01
    53  5.2000000000000E-01  1.1647096168350E+00  6.9548247144937E-01
    54  5.3000000000000E-01  1.1431437174713E+00  7.1550210869004E-01
    55  5.4000000000000E-01  1.1197581846609E+00  7.3574000300615E-01
    56  5.5000000000000E-01  1.0946067699942E+00  7.5615723254782E-01
    57  5.6000000000000E-01  1.0677481148683E+00  7.7671184934193E-01
    58  5.7000000000000E-01  1.0392455276773E+00  7.9735907681391E-01
    59  5.8000000000000E-01  1.0091667339729E+00  8.1805153149140E-01
    60  5.9000000000000E-01  9.7758360122838E-01  8.3873946727654E-01
    61  6.0000000000000E-01  9.4457184005297E-01  8.5937104046512E-01
    62  6.1000000000000E-01  9.1021068390576E-01  8.7989259349779E-01
    63  6.2000000000000E-01  8.7458254953862E-01  9.0024895525143E-01
    64  6.3000000000000E-01  8.3777268056413E-01  9.2038375552099E-01
    65  6.4000000000000E-01  7.9986877668836E-01  9.4023975120360E-01
    66  6.5000000000000E-01  7.6096061127239E-01  9.5975916157982E-01
    67  6.6000000000000E-01  7.2113963998679E-01  9.7888400999266E-01
    68  6.7000000000000E-01  6.8049860340134E-01  9.9755646915375E-01
    69  6.8000000000000E-01  6.3913112640514E-01  1.0157192072594E+00
    70  6.9000000000000E-01  5.9713131738031E-01  1.0333157320776E+00
    71  7.0000000000000E-01  5.5459337005608E-01  1.0502907301701E+00
    72  7.1000000000000E-01  5.1161117094698E-01  1.0665903984415E+00
    73  7.2000000000000E-01  4.6827791523146E-01  1.0821627652635E+00
    74  7.3000000000000E-01  4.2468573385457E-01  1.0969579984968E+00
    75  7.4000000000000E-01  3.8092533454041E-01  1.1109286978409E+00
    76  7.5000000000000E-01  3.3708565927996E-01  1.1240301690648E+00
    77  7.6000000000000E-01  2.9325356071502E-01  1.1362206778217E+00
    78  7.7000000000000E-01  2.4951349967412E-01  1.1474616809226E+00
    79  7.8000000000000E-01  2.0594726593044E-01  1.1577180331313E+00
    80  7.9000000000000E-01  1.6263372404709E-01  1.1669581677540E+00
    81  8.0000000000000E-01  1.1964858595384E-01  1.1751542495217E+00
    82  8.1000000000000E-01  7.7064211663099E-02  1.1822822985023E+00
    83  8.2000000000000E-01  3.4949439282981E-02  1.1883222840342E+00
    84  8.3000000000000E-01 -6.6305547742519E-03  1.1932581879329E+00
    85  8.4000000000000E-01 -4.7614364759838E-02  1.1970780364978E+00
    86  8.5000000000000E-01 -8.7944433378046E-02  1.1997739011186E+00
    87  8.6000000000000E-01 -1.2756709832260E-01  1.2013418675649E+00
    88  8.7000000000000E-01 -1.6643260776498E-01  1.2017819743208E+00
    89  8.8000000000000E-01 -2.0449510527819E-01  1.2010981206084E+00
    90  8.9000000000000E-01 -2.4171258495498E-01  1.1992979450157E+00
    91  9.0000000000000E-01 -2.7804681774779E-01  1.1963926759168E+00
    92  9.1000000000000E-01 -3.1346325031795E-01  1.1923969551279E+00
    93  9.2000000000000E-01 -3.4793087793051E-01  1.1873286364923E+00
    94  9.3000000000000E-01 -3.8142209316609E-01  1.1812085613199E+00
    95  9.4000000000000E-01 -4.1391251244135E-01  1.1740603128253E+00
    96  9.5000000000000E-01 -4.4538078253113E-01  1.1659099519063E+00
    97  9.6000000000000E-01 -4.7580836946775E-01  1.1567857367845E+00
    98  9.7000000000000E-01 -5.0517933235394E-01  1.1467178291872E+00
    99  9.8000000000000E-01 -5.3348008476301E-01  1.1357379898823E+00
   100  9.9000000000000E-01 -5.6069914651394E-01  1.1238792664864E+00
   101  1.0000000000000E+00 -5.8682688869583E-01  1.1111756765514E+00
   102  1.0100000000000E+00 -6.1185527487802E-01  1.0976618889870E+00
   103  1.0200000000000E+00 -6.3577760147528E-01  1.0833729069066E+00
   104  1.0300000000000E+00 -6.5858824024369E-01  1.0683437549840E+00
   105  1.0400000000000E+00 -6.8028238586068E-01  1.0526091743780E+00
   106  1.0500000000000E+00 -7.0085581149255E-01  1.0362033282269E+00
   107  1.0600000000000E+00 -7.2030463517459E-01  1.0191595206277E+00
   108  1.0700000000000E+00 -7.3862509972403E-01  1.0015099319039E+00
   109  1.0800000000000E+00 -7.5581336877449E-01  9.8328537282681E-01
   110  1.0900000000000E+00 -7.7186534136281E-01  9.6451506028663E-01
   111  1.1000000000000E+00 -7.8677648731854E-01  9.4522641672513E-01
   112  1.1100000000000E+00 -8.0054170550168E-01  9.2544489542533E-01
   113  1.1200000000000E+00 -8.1315520670940E-01  9.0519383352203E-01
   114  1.1300000000000E+00 -8.2461042282805E-01  8.8449433434349E-01
   115  1.1400000000000E+00 -8.3489994354515E-01  8.6336518042443E-01
   116  1.1500000000000E+00 -8.4401548166039E-01  8.4182277824649E-01
   117  1.1600000000000E+00 -8.5194786774537E-01  8.1988113546371E-01
   118  1.1700000000000E+00 -8.5868707460388E-01  7.9755187106474E-01
   119  1.1800000000000E+00 -8.6422227167868E-01  7.7484425860865E-01
   120  1.1900000000000E+00 -8.6854190924006E-01  7.5176530235223E-01
   121  1.2000000000000E+00 -8.7163383188099E-01  7.2831984576750E-01
   122  1.2100000000000E+00 -8.7348542053096E-01  7.0451071162803E-01
   123  1.2200000000000E+00 -8.7408376189605E-01  6.8033887252904E-01
   124  1.2300000000000E+00 -8.7341584393151E-01  6.5580365039796E-01
   125  1.2400000000000E+00 -8.7146877566339E-01  6.3090294325458E-01
   126  1.2500000000000E+00 -8.6823002939869E-01  6.0563347719541E-01
   127  1.2600000000000E+00 -8.6368770309965E-01  5.7999108130617E-01
   128  1.2700000000000E+00 -8.5783080045370E-01  5.5397098295542E-01
   129  1.2800000000000E+00 -8.5064952594532E-01  5.2756812069086E-01
   130  1.2900000000000E+00 -8.4213559203287E-01  5.0077747175047E-01
   131  1.3000000000000E+00 -8.3228253535549E-01  4.7359439101725E-01
   132  1.3100000000000E+00 -8.2108603874288E-01  4.4601495808858E-01
   133  1.3200000000000E+00 -8.0854425567609E-01  4.1803632900202E-01
   134  1.3300000000000E+00 -7.9465813375259E-01  3.8965708905994E-01
   135  1.3400000000000E+00 -7.7943173364433E-01  3.6087760312701E-01
   136  1.3500000000000E+00 -7.6287254000416E-01  3.3170035973743E-01
   137  1.3600000000000E+00 -7.4499176077456E-01  3.0213030534492E-01
   138  1.3700000000000E+00 -7.2580461138418E-01  2.7217516507687E-01
   139  1.3800000000000E+00 -7.0533058038078E-01  2.4184574641539E-01
   140  1.3900000000000E+00 -6.8359367314547E-01  2.1115622232258E-01
   141  1.4000000000000E+00 -6.6062263046030E-01  1.8012439045336E-01
   142  1.4100000000000E+00 -6.3645111886005E-01  1.4877190525722E-01
   143  1.4200000000000E+00 -6.1111788988770E-01  1.1712447995873E-01
   144  1.4300000000000E+00 -5.8466690558906E-01  8.5212055622725E-02
   145  1.4400000000000E+00 -5.5714742782748E-01  5.3068934756520E-02
   146  1.4500000000000E+00 -5.2861406926737E-01  2.0733877169775E-02
   147  1.4600000000000E+00 -4.9912680416786E-01 -1.1749843892502E-02
   148  1.4700000000000E+00 -4.6875093744063E-01 -4.4334427014330E-02
   149  1.4800000000000E+00 -4.3755703075660E-01 -7.6967570607754E-02
   150  1.4900000000000E+00 -4.0562078483254E-01 -1.0959254463471E-01
   151  1.5000000000000E+00 -3.7302287738799E-01 -1.4214830667761E-01
   152  1.5100000000000E+00 -3.3984875663110E-01 -1.7456966261312E-01
   153  1.5200000000000E+00 -3.0618839050691E-01 -2.0678747176464E-01
   154  1.5300000000000E+00 -2.7213597232031E-01 -2.3872889602665E-01
   155  1.5400000000000E+00 -2.3778958372394E-01 -2.7031769207167E-01
   156  1.5500000000000E+00 -2.0325081643647E-01 -3.0147454537079E-01
   157  1.5600000000000E+00 -1.6862435442595E-01 -3.3211744438516E-01
   158  1.5700000000000E+00 -1.3401751864997E-01 -3.6216209292326E-01
   159  1.5800000000000E+00 -9.9539776792577E-02 -3.9152235830620E-01
   160  1.5900000000000E+00 -6.5302220765701E-02 -4.2011075264959E-01
   161  1.6000000000000E+00 -3.1417015054498E-02 -4.4783894425405E-01
   162  1.6100000000000E+00  2.0031807258233E-03 -4.7461829580244E-01
   163  1.6200000000000E+00  3.4845811429906E-02 -5.0036042579251E-01
   164  1.6300000000000E+00  6.6999044270281E-02 -5.2497778939083E-01
   165  1.6400000000000E+00  9.8352400917718E-02 -5.4838427468163E-01
   166  1.6500000000000E+00  1.2879739956208E-01 -5.7049581010204E-01
   167  1.6600000000000E+00  1.5822820253953E-01 -5.9123097870777E-01
   168  1.6700000000000E+00  1.8654226502429E-01 -6.1051163479969E-01
   169  1.6800000000000E+00  2.1364098021157E-01 -6.2826351836522E-01
   170  1.6900000000000E+00  2.3943031638396E-01 -6.4441686274818E-01
   171  1.7000000000000E+00  2.6382144125690E-01 -6.5890699095930E-01
   172  1.7100000000000E+00  2.8673132904004E-01 -6.7167489607536E-01
   173  1.7200000000000E+00  3.0808334573075E-01 -6.8266780124943E-01
   174  1.7300000000000E+00  3.2780780827313E-01 -6.9183969496707E-01
   175  1.7400000000000E+00  3.4584251337008E-01 -6.9915183733250E-01
   176  1.7500000000000E+00  3.6213323192592E-01 -7.0457323335472E-01
   177  1.7600000000000E+00  3.7663416532277E-01 -7.0808106942432E-01
   178  1.7700000000000E+00  3.8930835999155E-01 -7.0966110942596E-01
   179  1.7800000000000E+00  4.0012807702866E-01 -7.0930804721707E-01
   180  1.7900000000000E+00  4.0907511392823E-01 -7.0702581251903E-01
   181  1.8000000000000E+00  4.1614107584542E-01 -7.0282782760889E-01
   182  1.8100000000000E+00  4.2132759417656E-01 -6.9673721256685E-01
   183  1.8200000000000E+00  4.2464649063226E-01 -6.8878693722203E-01
   184  1.8300000000000E+00  4.2611988539215E-01 -6.7901991834868E-01
   185  1.8400000000000E+00  4.2578024834766E-01 -6.6748906108051E-01
   186  1.8500000000000E+00  4.2367039288359E-01 -6.5425724395215E-01
   187  1.8600000000000E+00  4.1984341255336E-01 -6.3939724794492E-01
   188  1.8700000000000E+00  4.1436256063762E-01 -6.2299162940982E-01
   189  1.8800000000000E+00  4.0730105156448E-01 -6.0513251288693E-01
   190  1.8900000000000E+00  3.9874191786054E-01 -5.8592145565951E-01
   191  1.9000000000000E+00  3.8877721389046E-01 -5.6546857595087E-01
   192  1.9100000000000E+00  3.7750618382847E-01 -5.4389051802448E-01
   193  1.9200000000000E+00  3.6503368243928E-01 -5.2130873391566E-01
   194  1.9300000000000E+00  3.5146967923134E-01 -4.9784901556175E-01
   195  1.9400000000000E+00  3.3692866576678E-01 -4.7364092195753E-01
   196  1.9500000000000E+00  3.2152904528979E-01 -4.4881719165774E-01
   197  1.9600000000000E+00  3.0539248396961E-01 -4.2351311617376E-01
   198  1.9700000000000E+00  2.8864323314672E-01 -3.9786588434551E-01
   199  1.9800000000000E+00  2.7140742570821E-01 -3.7201390054681E-01
   200  1.9900000000000E+00  2.5381235149905E-01 -3.4609608159280E-01
   201  2.0000000000000E+00  2.3598571671343E-01 -3.2025113723468E-01
   202  2.0100000000000E+00  2.1805489229181E-01 -2.9461683920296E-01
   203  2.0200000000000E+00  2.0014615656460E-01 -2.6932928398964E-01
   204  2.0300000000000E+00  1.8238393737983E-01 -2.4452215455026E-01
   205  2.0400000000000E+00  1.6489005903714E-01 -2.2032598620020E-01
   206  2.0500000000000E+00  1.4778299936235E-01 -1.9686744199627E-01
   207  2.0600000000000E+00  1.3117716587090E-01 -1.7426860628116E-01
   208  2.0700000000000E+00  1.1518215805059E-01 -1.5264626590748E-01
   209  2.0800000000000E+00  9.9902179065555E-02 -1.3211133090717E-01
   210  2.0900000000000E+00  8.5435263371785E-02 -1.1276808972702E-01
   211  2.1000000000000E+00  7.1871637290839E-02 -9.4712640847163E-02
   212  2.1100000000000E+00  5.9291511778347E-02 -7.8030768624798E-02
   213  2.1200000000000E+00  4.7771500560762E-02 -6.2803951791238E-02
   214  2.1300000000000E+00  3.7381442603441E-02 -4.9106412028001E-02
   215  2.1400000000000E+00  2.8181758316704E-02 -3.7002634952131E-02
   216  2.1500000000000E+00  2.0223640047912E-02 -2.6547519222793E-02
   217  2.1600000000000E+00  1.3548636142823E-02 -1.7785971930634E-02
   218  2.1700000000000E+00  8.1905661785777E-03 -1.0755521941486E-02
   219  2.1800000000000E+00  4.1601907176940E-03 -5.4661543005036E-03
   220  2.1900000000000E+00  1.4800570067078E-03 -1.9463212329918E-03
   221  2.2000000000000E+00  2.1672026952068E-04 -2.8533718513628E-04
   222  2.2100000000000E+00 -5.6970899850220E-05  7.5045280387863E-05
   223  2.2200000000000E+00  9.0110944308962E-06 -1.1861369222538E-05
   224  2.23  0. -0.
   225  2.24 -0.  0.
   226  2.25  0. -0.
   227  2.26  0.  0.
   228  2.27  0.  0.
   229  2.28  0.  0.
   230  2.29  0.  0.
   231  2.30  0.  0.
   232  2.31  0.  0.
   233  2.32  0.  0.
   234  2.33  0.  0.
   235  2.34  0.  0.
   236  2.35  0.  0.
   237  2.36  0.  0.
   238  2.37  0.  0.
   239  2.38  0.  0.
   240  2.39  0.  0.
   241  2.40  0.  0.
   242  2.41  0.  0.
   243  2.42  0.  0.
   244  2.43  0.  0.
   245  2.44  0.  0.
   246  2.45  0.  0.
   247  2.46  0.  0.
   248  2.47  0.  0.
   249  2.48  0.  0.
   250  2.49  0.  0.
   251  2.50  0.  0.
   252  2.51  0.  0.
   253  2.52  0.  0.
   254  2.53  0.  0.
   255  2.54  0.  0.
   256  2.55  0.  0.
   257  2.56  0.  0.
   258  2.57  0.  0.
   259  2.58  0.  0.
   260  2.59  0.  0.
   261  2.60  0.  0.
   262  2.61  0.  0.
   263  2.62  0.  0.
   264  2.63  0.  0.
   265  2.64  0.  0.
   266  2.65  0.  0.
   267  2.66  0.  0.
   268  2.67  0.  0.
   269  2.68  0.  0.
   270  2.69  0.  0.
   271  2.70  0.  0.
   272  2.71  0.  0.
   273  2.72  0.  0.
   274  2.73  0.  0.
   275  2.74  0.  0.
   276  2.75  0.  0.
   277  2.76  0.  0.
   278  2.77  0.  0.
   279  2.78  0.  0.
   280  2.79  0.  0.
   281  2.80  0.  0.
   282  2.81  0.  0.
   283  2.82  0.  0.
   284  2.83  0.  0.
   285  2.84  0.  0.
   286  2.85  0.  0.
   287  2.86  0.  0.
   288  2.87  0.  0.
   289  2.88  0.  0.
   290  2.89  0.  0.
   291  2.90  0.  0.
   292  2.91  0.  0.
   293  2.92  0.  0.
   294  2.93  0.  0.
   295  2.94  0.  0.
   296  2.95  0.  0.
   297  2.96  0.  0.
   298  2.97  0.  0.
   299  2.98  0.  0.
   300  2.99  0.  0.
   301  3.00  0.  0.
   302  3.01  0.  0.
   303  3.02  0.  0.
   304  3.03  0.  0.
   305  3.04  0.  0.
   306  3.05  0.  0.
   307  3.06  0.  0.
   308  3.07  0.  0.
   309  3.08  0.  0.
   310  3.09  0.  0.
   311  3.10  0.  0.
   312  3.11  0.  0.
   313  3.12  0.  0.
   314  3.13  0.  0.
   315  3.14  0.  0.
   316  3.15  0.  0.
   317  3.16  0.  0.
   318  3.17  0.  0.
   319  3.18  0.  0.
   320  3.19  0.  0.
   321  3.20  0.  0.
   322  3.21  0.  0.
   323  3.22  0.  0.
   324  3.23  0.  0.
   325  3.24  0.  0.
   326  3.25  0.  0.
   327  3.26  0.  0.
   328  3.27  0.  0.
   329  3.28  0.  0.
   330  3.29  0.  0.
   331  3.30  0.  0.
   332  3.31  0.  0.
   333  3.32  0.  0.
   334  3.33  0.  0.
   335  3.34  0.  0.
   336  3.35  0.  0.
   337  3.36  0.  0.
   338  3.37  0.  0.
   339  3.38  0.  0.
   340  3.39  0.  0.
   341  3.40  0.  0.
   342  3.41  0.  0.
   343  3.42  0.  0.
   344  3.43  0.  0.
   345  3.44  0.  0.
   346  3.45  0.  0.
   347  3.46  0.  0.
   348  3.47  0.  0.
   349  3.48  0.  0.
   350  3.49  0.  0.
   351  3.50  0.  0.
   352  3.51  0.  0.
   353  3.52  0.  0.
   354  3.53  0.  0.
   355  3.54  0.  0.
   356  3.55  0.  0.
   357  3.56  0.  0.
   358  3.57  0.  0.
   359  3.58  0.  0.
   360  3.59  0.  0.
   361  3.60  0.  0.
   362  3.61  0.  0.
   363  3.62  0.  0.
   364  3.63  0.  0.
   365  3.64  0.  0.
   366  3.65  0.  0.
   367  3.66  0.  0.
   368  3.67  0.  0.
   369  3.68  0.  0.
   370  3.69  0.  0.
   371  3.70  0.  0.
   372  3.71  0.  0.
   373  3.72  0.  0.
   374  3.73  0.  0.
   375  3.74  0.  0.
   376  3.75  0.  0.
   377  3.76  0.  0.
   378  3.77  0.  0.
   379  3.78  0.  0.
   380  3.79  0.  0.
   381  3.80  0.  0.
   382  3.81  0.  0.
   383  3.82  0.  0.
   384  3.83  0.  0.
   385  3.84  0.  0.
   386  3.85  0.  0.
   387  3.86  0.  0.
   388  3.87  0.  0.
   389  3.88  0.  0.
   390  3.89  0.  0.
   391  3.90  0.  0.
   392  3.91  0.  0.
   393  3.92  0.  0.
   394  3.93  0.  0.
   395  3.94  0.  0.
   396  3.95  0.  0.
   397  3.96  0.  0.
   398  3.97  0.  0.
   399  3.98  0.  0.
   400  3.99  0.  0.
   1                        -4.8127942133947E-01 -1.4065017613636E-01
     1  0.0000000000000E+00 -3.2917285217038E-11  1.0300908737104E-10
     2  1.0000000000000E-02 -3.7713887633686E-05  2.9312780571701E-04
     3  2.0000000000000E-02 -1.5003914773613E-04  1.1707760114081E-03
     4  3.0000000000000E-02 -3.3453029884832E-04  2.6277483775723E-03
     5  4.0000000000000E-02 -5.8712394445036E-04  4.6554157667016E-03
     6  5.0000000000000E-02 -9.0215732174737E-04  7.2417628449906E-03
     7  6.0000000000000E-02 -1.2723941501716E-03  1.0371453084837E-02
     8  7.0000000000000E-02 -1.6890576605320E-03  1.4025911690581E-02
     9  8.0000000000000E-02 -2.1418706528251E-03  1.8183425966934E-02
    10  9.0000000000000E-02 -2.6191023986226E-03  2.2819262548401E-02
    11  1.0000000000000E-01 -3.1076221726369E-03  2.7905800810907E-02
    12  1.1000000000000E-01 -3.5929591682873E-03  3.3412681694785E-02
    13  1.2000000000000E-01 -4.0593685230731E-03  3.9306971079562E-02
    14  1.3000000000000E-01 -4.4899031523874E-03  4.5553336768828E-02
    15  1.4000000000000E-01 -4.8664910647054E-03  5.2114238067226E-02
    16  1.5000000000000E-01 -5.1700178068842E-03  5.8950126860521E-02
    17  1.6000000000000E-01 -5.3804136663416E-03  6.6019659047398E-02
    18  1.7000000000000E-01 -5.4767452363718E-03  7.3279915114541E-02
    19  1.8000000000000E-01 -5.4373109328146E-03  8.0686628598226E-02
    20  1.9000000000000E-01 -5.2397400341435E-03  8.8194421135195E-02
    21  2.0000000000000E-01 -4.8610948030601E-03  9.5757042772255E-02
    22  2.1000000000000E-01 -4.2779752361475E-03  1.0332761617993E-01
    23  2.2000000000000E-01 -3.4666259788086E-03  1.1085888339983E-01
    24  2.3000000000000E-01 -2.4030449355941E-03  1.1830345374667E-01
    25  2.4000000000000E-01 -1.0630931016260E-03  1.2561405148852E-01
    26  2.5000000000000E-01  5.7739486152748E-04  1.3274376193670E-01
    27  2.6000000000000E-01  2.5424997820727E-03  1.3964627459562E-01
    28  2.7000000000000E-01  4.8561073401704E-03  1.4627612204858E-01
    29  2.8000000000000E-01  7.5417981052786E-03  1.5258891328959E-01
    30  2.9000000000000E-01  1.0622738710670E-02  1.5854156025367E-01
    31  3.0000000000000E-01  1.4121574617787E-02  1.6409249634703E-01
    32  3.1000000000000E-01  1.8060324911687E-02  1.6920188583547E-01
    33  3.2000000000000E-01  2.2460279555140E-02  1.7383182301287E-01
    34  3.3000000000000E-01  2.7341899513556E-02  1.7794652014121E-01
    35  3.4000000000000E-01  3.2724720145338E-02  1.8151248322911E-01
    36  3.5000000000000E-01  3.8627258233245E-02  1.8449867479702E-01
    37  3.6000000000000E-01  4.5066923011380E-02  1.8687666286290E-01
    38  3.7000000000000E-01  5.2059931520226E-02  1.8862075547203E-01
    39  3.8000000000000E-01  5.9621228598397E-02  1.8970812018816E-01
    40  3.9000000000000E-01  6.7764411794862E-02  1.9011888805995E-01
    41  4.0000000000000E-01  7.6501661459494E-02  1.8983624167498E-01
    42  4.1000000000000E-01  8.5843676242848E-02  1.8884648701455E-01
    43  4.2000000000000E-01  9.5799614208477E-02  1.8713910892355E-01
    44  4.3000000000000E-01  1.0637703973290E-01  1.8470681011144E-01
    45  4.4000000000000E-01  1.1758187633966E-01  1.8154553370196E-01
    46  4.5000000000000E-01  1.2941836558514E-01  1.7765446944899E-01
    47  4.6000000000000E-01  1.4188903208464E-01  1.7303604383466E-01
    48  4.7000000000000E-01  1.5499465473865E-01  1.6769589436217E-01
    49  4.8000000000000E-01  1.6873424419030E-01  1.6164282844832E-01
    50  4.9000000000000E-01  1.8310502651700E-01  1.5488876741051E-01
    51  5.0000000000000E-01  1.9810243313141E-01  1.4744867612818E-01
    52  5.1000000000000E-01  2.1372009684017E-01  1.3934047903861E-01
    53  5.2000000000000E-01  2.2994985398242E-01  1.3058496320272E-01
    54  5.3000000000000E-01  2.4678175254533E-01  1.2120566924501E-01
    55  5.4000000000000E-01  2.6420406612971E-01  1.1122877103542E-01
    56  5.5000000000000E-01  2.8220331361601E-01  1.0068294503661E-01
    57  5.6000000000000E-01  3.0076428435973E-01  8.9599230290134E-02
    58  5.7000000000000E-01  3.1987006872532E-01  7.8010880056354E-02
    59  5.8000000000000E-01  3.3950209374911E-01  6.5953206157828E-02
    60  5.9000000000000E-01  3.5964016370518E-01  5.3463417102431E-02
    61  6.0000000000000E-01  3.8026250533297E-01  4.0580451081185E-02
    62  6.1000000000000E-01  4.0134581747202E-01  2.7344804946701E-02
    63  6.2000000000000E-01  4.2286532483783E-01  1.3798360280877E-02
    64  6.3000000000000E-01  4.4479483566268E-01 -1.5792344741695E-05
    65  6.4000000000000E-01  4.6710680291808E-01 -1.4053529825678E-02
    66  6.5000000000000E-01  4.8977238882855E-01 -2.8269872628789E-02
    67  6.6000000000000E-01  5.1276153238293E-01 -4.2619159502955E-02
    68  6.7000000000000E-01  5.3604301954661E-01 -5.7055219791070E-02
    69  6.8000000000000E-01  5.5958455587741E-01 -7.1531542380474E-02
    70  6.9000000000000E-01  5.8335284124917E-01 -8.6001440378584E-02
    71  7.0000000000000E-01  6.0731364638953E-01 -1.0041821065613E-01
    72  7.1000000000000E-01  6.3143189094308E-01 -1.1473528746138E-01
    73  7.2000000000000E-01  6.5567172277658E-01 -1.2890638937569E-01
    74  7.3000000000000E-01  6.7999659825076E-01 -1.4288565895190E-01
    75  7.4000000000000E-01  7.0436936319142E-01 -1.5662779445276E-01
    76  7.5000000000000E-01  7.2875233430288E-01 -1.7008817318535E-01
    77  7.6000000000000E-01  7.5310738077764E-01 -1.8322296601006E-01
    78  7.7000000000000E-01  7.7739600586834E-01 -1.9598924268634E-01
    79  7.8000000000000E-01  8.0157942820111E-01 -2.0834506780411E-01
    80  7.9000000000000E-01  8.2561866262295E-01 -2.2024958713597E-01
    81  8.0000000000000E-01  8.4947460039038E-01 -2.3166310433290E-01
    82  8.1000000000000E-01  8.7310808852142E-01 -2.4254714797290E-01
    83  8.2000000000000E-01  8.9648000814790E-01 -2.5286452905710E-01
    84  8.3000000000000E-01  9.1955135172103E-01 -2.6257938913251E-01
    85  8.4000000000000E-01  9.4228329893826E-01 -2.7165723930064E-01
    86  8.5000000000000E-01  9.6463729127506E-01 -2.8006499045099E-01
    87  8.6000000000000E-01  9.8657510502061E-01 -2.8777097513106E-01
    88  8.7000000000000E-01  1.0080589227312E+00 -2.9474496153569E-01
    89  8.8000000000000E-01  1.0290514030299E+00 -3.0095816016368E-01
    90  8.9000000000000E-01  1.0495157486942E+00 -3.0638322374803E-01
    91  9.0000000000000E-01  1.0694157729885E+00 -3.1099424112118E-01
    92  9.1000000000000E-01  1.0887159642079E+00 -3.1476672572318E-01
    93  9.2000000000000E-01  1.1073815484140E+00 -3.1767759950076E-01
    94  9.3000000000000E-01  1.1253785503533E+00 -3.1970517297913E-01
    95  9.4000000000000E-01  1.1426738525567E+00 -3.2082912231378E-01
    96  9.5000000000000E-01  1.1592352526299E+00 -3.2103046414718E-01
    97  9.6000000000000E-01  1.1750315187497E+00 -3.2029152910650E-01
    98  9.7000000000000E-01  1.1900324433876E+00 -3.1859593477879E-01
    99  9.8000000000000E-01  1.2042088952875E+00 -3.1592855899635E-01
   100  9.9000000000000E-01  1.2175328697277E+00 -3.1227551424905E-01
   101  1.0000000000000E+00  1.2299775370993E+00 -3.0762412401920E-01
   102  1.0100000000000E+00  1.2415172898329E+00 -3.0196290180546E-01
   103  1.0200000000000E+00  1.2521277877088E+00 -2.9528153356279E-01
   104  1.0300000000000E+00  1.2617860015791E+00 -2.8757086424320E-01
   105  1.0400000000000E+00  1.2704702555320E+00 -2.7882288906735E-01
   106  1.0500000000000E+00  1.2781602675214E+00 -2.6903075010083E-01
   107  1.0600000000000E+00  1.2848371884813E+00 -2.5818873864222E-01
   108  1.0700000000000E+00  1.2904836399377E+00 -2.4629230386056E-01
   109  1.0800000000000E+00  1.2950837501241E+00 -2.3333806804328E-01
   110  1.0900000000000E+00  1.2986231885982E+00 -2.1932384873526E-01
   111  1.1000000000000E+00  1.3010891993484E+00 -2.0424868796527E-01
   112  1.1100000000000E+00  1.3024706323704E+00 -1.8811288866819E-01
   113  1.1200000000000E+00  1.3027579736825E+00 -1.7091805832016E-01
   114  1.1300000000000E+00  1.3019433737397E+00 -1.5266715971270E-01
   115  1.1400000000000E+00  1.3000206741943E+00 -1.3336456869654E-01
   116  1.1500000000000E+00  1.2969854329407E+00 -1.1301613863343E-01
   117  1.1600000000000E+00  1.2928349473709E+00 -9.1629271199134E-02
   118  1.1700000000000E+00  1.2875682757567E+00 -6.9212993089662E-02
   119  1.1800000000000E+00  1.2811862566639E+00 -4.5778038091207E-02
   120  1.1900000000000E+00  1.2736915262924E+00 -2.1336933886947E-02
   121  1.2000000000000E+00  1.2650885336294E+00  4.0959071104543E-03
   122  1.2100000000000E+00  1.2553835532901E+00  3.0504093691638E-02
   123  1.2200000000000E+00  1.2445846959149E+00  5.7869159415447E-02
   124  1.2300000000000E+00  1.2327019159839E+00  8.6170464741032E-02
   125  1.2400000000000E+00  1.2197470169019E+00  1.1538509872575E-01
   126  1.2500000000000E+00  1.2057336532046E+00  1.4548778134442E-01
   127  1.2600000000000E+00  1.1906773297300E+00  1.7645076753166E-01
   128  1.2700000000000E+00  1.1745953975977E+00  2.0824375409256E-01
   129  1.2800000000000E+00  1.1575070468380E+00  2.4083379065597E-01
   130  1.2900000000000E+00  1.1394332955119E+00  2.7418519586976E-01
   131  1.3000000000000E+00  1.1203969751661E+00  3.0825948004995E-01
   132  1.3100000000000E+00  1.1004227124690E+00  3.4301527550034E-01
   133  1.3200000000000E+00  1.0795369068811E+00  3.7840827571314E-01
   134  1.3300000000000E+00  1.0577677042176E+00  4.1439118464618E-01
   135  1.3400000000000E+00  1.0351449659715E+00  4.5091367724626E-01
   136  1.3500000000000E+00  1.0117002342732E+00  4.8792237235309E-01
   137  1.3600000000000E+00  9.8746669237851E-01  5.2536081907286E-01
   138  1.3700000000000E+00  9.6247912058523E-01  5.6316949765544E-01
   139  1.3800000000000E+00  9.3677384749754E-01  6.0128583584498E-01
   140  1.3900000000000E+00  9.1038869657251E-01  6.3964424160010E-01
   141  1.4000000000000E+00  8.8336292790072E-01  6.7817615299730E-01
   142  1.4100000000000E+00  8.5573717519297E-01  7.1681010604127E-01
   143  1.4200000000000E+00  8.2755337796541E-01  7.5547182100686E-01
   144  1.4300000000000E+00  7.9885470893713E-01  7.9408430783278E-01
   145  1.4400000000000E+00  7.6968549667716E-01  8.3256799097489E-01