Ca    ONCVPSP-4.0.1  r_core=   2.27764   2.50641   2.66093
     20.0000     10.0000      220129    zatom,zion,pspd
     8      11   2     4   400     0    pspcod,pspxc,lmax,lloc,mmax,r2well
  3.99000000  6.00000000  0.00000000    rchrg fchrg qchrg
     2     2     2     0     0    nproj
     1     1           extension_switch
   0                         2.9497951402506E+00  4.4729752049577E-01
     1  0.0000000000000E+00 -3.5331182424159E-12  5.9908467076042E-12
     2  1.0000000000000E-02  4.9750721861134E-02 -4.1151047059122E-03
     3  2.0000000000000E-02  9.9431984722121E-02 -8.1926942962403E-03
     4  3.0000000000000E-02  1.4897444874347E-01 -1.2195355052540E-02
     5  4.0000000000000E-02  1.9830901213956E-01 -1.6085875717333E-02
     6  5.0000000000000E-02  2.4736692953774E-01 -1.9827347892798E-02
     7  6.0000000000000E-02  2.9607992953872E-01 -2.3383265445554E-02
     8  7.0000000000000E-02  3.4438033121582E-01 -2.6717622593197E-02
     9  8.0000000000000E-02  3.9220115929464E-01 -2.9795010354252E-02
    10  9.0000000000000E-02  4.3947625775891E-01 -3.2580711050591E-02
    11  1.0000000000000E-01  4.8614040163315E-01 -3.5040790560085E-02
    12  1.1000000000000E-01  5.3212940669947E-01 -3.7142188027473E-02
    13  1.2000000000000E-01  5.7738023691182E-01 -3.8852802752746E-02
    14  1.3000000000000E-01  6.2183110927920E-01 -4.0141577989086E-02
    15  1.4000000000000E-01  6.6542159599710E-01 -4.0978581396152E-02
    16  1.5000000000000E-01  7.0809272361570E-01 -4.1335081909466E-02
    17  1.6000000000000E-01  7.4978706904266E-01 -4.1183622802530E-02
    18  1.7000000000000E-01  7.9044885218868E-01 -4.0498090735223E-02
    19  1.8000000000000E-01  8.3002402507462E-01 -3.9253780599716E-02
    20  1.9000000000000E-01  8.6846035723015E-01 -3.7427455993618E-02
    21  2.0000000000000E-01  9.0570751722570E-01 -3.4997405169139E-02
    22  2.1000000000000E-01  9.4171715019132E-01 -3.1943492326793E-02
    23  2.2000000000000E-01  9.7644295118876E-01 -2.8247204142317E-02
    24  2.3000000000000E-01  1.0098407343155E+00 -2.3891691435789E-02
    25  2.4000000000000E-01  1.0418684974326E+00 -1.8861805912889E-02
    26  2.5000000000000E-01  1.0724864824214E+00 -1.3144131928869E-02
    27  2.6000000000000E-01  1.1016572308865E+00 -6.7270132467988E-03
    28  2.7000000000000E-01  1.1293456352384E+00  3.9942521767109E-04
    29  2.8000000000000E-01  1.1555189850980E+00  8.2432606521910E-03
    30  2.9000000000000E-01  1.1801470089827E+00  1.6810760571074E-02
    31  3.0000000000000E-01  1.2032019112461E+00  2.6106375953242E-02
    32  3.1000000000000E-01  1.2246584042527E+00  3.6132739222535E-02
    33  3.2000000000000E-01  1.2444937357877E+00  4.6890666979448E-02
    34  3.3000000000000E-01  1.2626877117100E+00  5.8379167375282E-02
    35  3.4000000000000E-01  1.2792227138697E+00  7.0595452002867E-02
    36  3.5000000000000E-01  1.2940837133250E+00  8.3534952161408E-02
    37  3.6000000000000E-01  1.3072582789028E+00  9.7191339338041E-02
    38  3.7000000000000E-01  1.3187365811586E+00  1.1155654973447E-01
    39  3.8000000000000E-01  1.3285113918032E+00  1.2662081265388E-01
    40  3.9000000000000E-01  1.3365780786711E+00  1.4237268255183E-01
    41  4.0000000000000E-01  1.3429345963179E+00  1.5879907454402E-01
    42  4.1000000000000E-01  1.3475814723396E+00  1.7588530315486E-01
    43  4.2000000000000E-01  1.3505217895174E+00  1.9361512408285E-01
    44  4.3000000000000E-01  1.3517611638970E+00  2.1197077875245E-01
    45  4.4000000000000E-01  1.3513077189201E+00  2.3093304141712E-01
    46  4.5000000000000E-01  1.3491720557296E+00  2.5048126857481E-01
    47  4.6000000000000E-01  1.3453672197780E+00  2.7059345045499E-01
    48  4.7000000000000E-01  1.3399086638695E+00  2.9124626433621E-01
    49  4.8000000000000E-01  1.3328142077753E+00  3.1241512945343E-01
    50  4.9000000000000E-01  1.3241039945587E+00  3.3407426325751E-01
    51  5.0000000000000E-01  1.3138004437549E+00  3.5619673879265E-01
    52  5.1000000000000E-01  1.3019282015475E+00  3.7875454296275E-01
    53  5.2000000000000E-01  1.2885140880875E+00  4.0171863546461E-01
    54  5.3000000000000E-01  1.2735870421002E+00  4.2505900817350E-01
    55  5.4000000000000E-01  1.2571780629248E+00  4.4874474477586E-01
    56  5.5000000000000E-01  1.2393201501308E+00  4.7274408045427E-01
    57  5.6000000000000E-01  1.2200482408543E+00  4.9702446144109E-01
    58  5.7000000000000E-01  1.1993991449940E+00  5.2155260426991E-01
    59  5.8000000000000E-01  1.1774114784058E+00  5.4629455456713E-01
    60  5.9000000000000E-01  1.1541255942299E+00  5.7121574524009E-01
    61  6.0000000000000E-01  1.1295835124822E+00  5.9628105393346E-01
    62  6.1000000000000E-01  1.1038288480373E+00  6.2145485964088E-01
    63  6.2000000000000E-01  1.0769067371262E+00  6.4670109837505E-01
    64  6.3000000000000E-01  1.0488637624668E+00  6.7198331781577E-01
    65  6.4000000000000E-01  1.0197478771411E+00  6.9726473087250E-01
    66  6.5000000000000E-01  9.8960832732802E-01  7.2250826811444E-01
    67  6.6000000000000E-01  9.5849557399340E-01  7.4767662903841E-01
    68  6.7000000000000E-01  9.2646121363802E-01  7.7273233216141E-01
    69  6.8000000000000E-01  8.9355789819386E-01  7.9763776394123E-01
    70  6.9000000000000E-01  8.5983925415745E-01  8.2235522654478E-01
    71  7.0000000000000E-01  8.2535980104202E-01  8.4684698449967E-01
    72  7.1000000000000E-01  7.9017486922582E-01  8.7107531027902E-01
    73  7.2000000000000E-01  7.5434051726883E-01  8.9500252888455E-01
    74  7.3000000000000E-01  7.1791344876551E-01  9.1859106150607E-01
    75  7.4000000000000E-01  6.8095092879697E-01  9.4180346834802E-01
    76  7.5000000000000E-01  6.4351070004177E-01  9.6460249072518E-01
    77  7.6000000000000E-01  6.0565089860109E-01  9.8695109253995E-01
    78  7.7000000000000E-01  5.6742996959086E-01  1.0088125012624E+00
    79  7.8000000000000E-01  5.2890658255040E-01  1.0301502485425E+00
    80  7.9000000000000E-01  4.9013954671528E-01  1.0509282105883E+00
    81  8.0000000000000E-01  4.5118772620021E-01  1.0711106484520E+00
    82  8.1000000000000E-01  4.1210995513664E-01  1.0906622483640E+00
    83  8.2000000000000E-01  3.7296495280923E-01  1.1095481622612E+00
    84  8.3000000000000E-01  3.3381123883532E-01  1.1277340486529E+00
    85  8.4000000000000E-01  2.9470704843233E-01  1.1451861139658E+00
    86  8.5000000000000E-01  2.5571024781908E-01  1.1618711545070E+00
    87  8.6000000000000E-01  2.1687824979911E-01  1.1777565991781E+00
    88  8.7000000000000E-01  1.7826792957625E-01  1.1928105530662E+00
    89  8.8000000000000E-01  1.3993554085620E-01  1.2070018420291E+00
    90  8.9000000000000E-01  1.0193663229128E-01  1.2203000583807E+00
    91  9.0000000000000E-01  6.4325964329707E-02  1.2326756077732E+00
    92  9.1000000000000E-01  2.7157426535802E-02  1.2440997573554E+00
    93  9.2000000000000E-01 -9.5160445474197E-03  1.2545446852730E+00
    94  9.3000000000000E-01 -4.5642546915924E-02  1.2639835315630E+00
    95  9.4000000000000E-01 -8.1171293919076E-02  1.2723904504700E+00
    96  9.5000000000000E-01 -1.1605269428077E-01  1.2797406642009E+00
    97  9.6000000000000E-01 -1.5023843123025E-01  1.2860105181070E+00
    98  9.7000000000000E-01 -1.8368154063844E-01  1.2911775372677E+00
    99  9.8000000000000E-01 -2.1633648804820E-01  1.2952204844231E+00
   100  9.9000000000000E-01 -2.4815924447947E-01  1.2981194191828E+00
   101  1.0000000000000E+00 -2.7910736088251E-01  1.2998557584148E+00
   102  1.0100000000000E+00 -3.0914004110480E-01  1.3004123376930E+00
   103  1.0200000000000E+00 -3.3821821322988E-01  1.2997734736605E+00
   104  1.0300000000000E+00 -3.6630459913842E-01  1.2979250271389E+00
   105  1.0400000000000E+00 -3.9336378213512E-01  1.2948544667929E+00
   106  1.0500000000000E+00 -4.1936227247797E-01  1.2905509331343E+00
   107  1.0600000000000E+00 -4.4426857063942E-01  1.2850053026257E+00
   108  1.0700000000000E+00 -4.6805322812359E-01  1.2782102516240E+00
   109  1.0800000000000E+00 -4.9068890565752E-01  1.2701603198802E+00
   110  1.0900000000000E+00 -5.1215042856959E-01  1.2608519732909E+00
   111  1.1000000000000E+00 -5.3241483916413E-01  1.2502836655807E+00
   112  1.1100000000000E+00 -5.5146144589734E-01  1.2384558985718E+00
   113  1.1200000000000E+00 -5.6927186915721E-01  1.2253712806848E+00
   114  1.1300000000000E+00 -5.8583008344798E-01  1.2110345832958E+00
   115  1.1400000000000E+00 -6.0112245577894E-01  1.1954527945661E+00
   116  1.1500000000000E+00 -6.1513778005729E-01  1.1786351703443E+00
   117  1.1600000000000E+00 -6.2786730728616E-01  1.1605932817370E+00
   118  1.1700000000000E+00 -6.3930477137068E-01  1.1413410589325E+00
   119  1.1800000000000E+00 -6.4944641033890E-01  1.1208948308610E+00
   120  1.1900000000000E+00 -6.5829098278834E-01  1.0992733602701E+00
   121  1.2000000000000E+00 -6.6583977937516E-01  1.0764978737962E+00
   122  1.2100000000000E+00 -6.7209662916954E-01  1.0525920866143E+00
   123  1.2200000000000E+00 -6.7706790070927E-01  1.0275822212557E+00
   124  1.2300000000000E+00 -6.8076249759295E-01  1.0014970201893E+00
   125  1.2400000000000E+00 -6.8319184846461E-01  9.7436775177489E-01
   126  1.2500000000000E+00 -6.8436989125394E-01  9.4622820920879E-01
   127  1.2600000000000E+00 -6.8431305154873E-01  9.1711470210083E-01
   128  1.2700000000000E+00 -6.8304021499109E-01  8.8706604033733E-01
   129  1.2800000000000E+00 -6.8057269360380E-01  8.5612350990951E-01
   130  1.2900000000000E+00 -6.7693418596993E-01  8.2433084040852E-01
   131  1.3000000000000E+00 -6.7215073120634E-01  7.9173416391602E-01
   132  1.3100000000000E+00 -6.6625065669014E-01  7.5838196504787E-01
   133  1.3200000000000E+00 -6.5926451951643E-01  7.2432502193943E-01
   134  1.3300000000000E+00 -6.5122504168614E-01  6.8961633799439E-01
   135  1.3400000000000E+00 -6.4216703904340E-01  6.5431106425440E-01
   136  1.3500000000000E+00 -6.3212734400380E-01  6.1846641228352E-01
   137  1.3600000000000E+00 -6.2114472213674E-01  5.8214155750037E-01
   138  1.3700000000000E+00 -6.0925978268790E-01  5.4539753293070E-01
   139  1.3800000000000E+00 -5.9651488315063E-01  5.0829711339473E-01
   140  1.3900000000000E+00 -5.8295402801827E-01  4.7090469018557E-01
   141  1.4000000000000E+00 -5.6862276187269E-01  4.3328613633814E-01
   142  1.4100000000000E+00 -5.5356805698739E-01  3.9550866263201E-01
   143  1.4200000000000E+00 -5.3783819564682E-01  3.5764066451471E-01
   144  1.4300000000000E+00 -5.2148264740618E-01  3.1975156017704E-01
   145  1.4400000000000E+00 -5.0455194153844E-01  2.8191162005476E-01
   146  1.4500000000000E+00 -4.8709753493704E-01  2.4419178807473E-01
   147  1.4600000000000E+00 -4.6917167576420E-01  2.0666349500630E-01
   148  1.4700000000000E+00 -4.5082726315472E-01  1.6939846431989E-01
   149  1.4800000000000E+00 -4.3211770330508E-01  1.3246851099547E-01
   150  1.4900000000000E+00 -4.1309676229568E-01  9.5945333762287E-02
   151  1.5000000000000E+00 -3.9381841601149E-01  5.9900301288309E-02
   152  1.5100000000000E+00 -3.7433669754238E-01  2.4404232872973E-02
   153  1.5200000000000E+00 -3.5470554245869E-01 -1.0472825770183E-02
   154  1.5300000000000E+00 -3.3497863237107E-01 -4.4661831024033E-02
   155  1.5400000000000E+00 -3.1520923719456E-01 -7.8094973526842E-02
   156  1.5500000000000E+00 -2.9545005654717E-01 -1.1070591330990E-01
   157  1.5600000000000E+00 -2.7575306072068E-01 -1.4243001722236E-01
   158  1.5700000000000E+00 -2.5616933166782E-01 -1.7320459793297E-01
   159  1.5800000000000E+00 -2.3674890445410E-01 -2.0296915378314E-01
   160  1.5900000000000E+00 -2.1754060962464E-01 -2.3166560875411E-01
   161  1.6000000000000E+00 -1.9859191693681E-01 -2.5923855180274E-01
   162  1.6100000000000E+00 -1.7994878090722E-01 -2.8563547481589E-01
   163  1.6200000000000E+00 -1.6165548861804E-01 -3.1080700843304E-01
   164  1.6300000000000E+00 -1.4375451022126E-01 -3.3470715498972E-01
   165  1.6400000000000E+00 -1.2628635257158E-01 -3.5729351784140E-01
   166  1.6500000000000E+00 -1.0928941640816E-01 -3.7852752633892E-01
   167  1.6600000000000E+00 -9.2799857493276E-02 -3.9837465574074E-01
   168  1.6700000000000E+00 -7.6851452101658E-02 -4.1680464136660E-01
   169  1.6800000000000E+00 -6.1475467237726E-02 -4.3379168631932E-01
   170  1.6900000000000E+00 -4.6700535939976E-02 -4.4931466212771E-01
   171  1.7000000000000E+00 -3.2552538011412E-02 -4.6335730169362E-01
   172  1.7100000000000E+00 -1.9054486493344E-02 -4.7590838395879E-01
   173  1.7200000000000E+00 -6.2264201759297E-03 -4.8696190974456E-01
   174  1.7300000000000E+00  5.9146975858305E-03 -4.9651726825636E-01
   175  1.7400000000000E+00  1.7355073508917E-02 -5.0457939378801E-01
   176  1.7500000000000E+00  2.8084172293456E-02 -5.1115891229544E-01
   177  1.7600000000000E+00  3.8094797759386E-02 -5.1627227779544E-01
   178  1.7700000000000E+00  4.7383162527552E-02 -5.1994188701717E-01
   179  1.7800000000000E+00  5.5948943860962E-02 -5.2219616603885E-01
   180  1.7900000000000E+00  6.3794736187174E-02 -5.2306815813645E-01
   181  1.8000000000000E+00  7.0925336319221E-02 -5.2259374364264E-01
   182  1.8100000000000E+00  7.7347558847208E-02 -5.2081122617597E-01
   183  1.8200000000000E+00  8.3070230480226E-02 -5.1776137727763E-01
   184  1.8300000000000E+00  8.8104146966154E-02 -5.1348739105722E-01
   185  1.8400000000000E+00  9.2462028701887E-02 -5.0803484065404E-01
   186  1.8500000000000E+00  9.6158469441551E-02 -5.0145162204225E-01
   187  1.8600000000000E+00  9.9209877924688E-02 -4.9378788462182E-01
   188  1.8700000000000E+00  1.0163441276867E-01 -4.8509594930641E-01
   189  1.8800000000000E+00  1.0345191081231E-01 -4.7543021440022E-01
   190  1.8900000000000E+00  1.0468380913025E-01 -4.6484704961776E-01
   191  1.9000000000000E+00  1.0535306098994E-01 -4.5340467870929E-01
   192  1.9100000000000E+00  1.0548404602822E-01 -4.4116305115087E-01
   193  1.9200000000000E+00  1.0510247497914E-01 -4.2818370347270E-01
   194  1.9300000000000E+00  1.0423528928750E-01 -4.1452961079270E-01
   195  1.9400000000000E+00  1.0291055597751E-01 -4.0026502919145E-01
   196  1.9500000000000E+00  1.0115735817391E-01 -3.8545532961934E-01
   197  1.9600000000000E+00  9.9005681682475E-02 -3.7016682403835E-01
   198  1.9700000000000E+00  9.6486298048974E-02 -3.5446658452026E-01
   199  1.9800000000000E+00  9.3630644540135E-02 -3.3842225607335E-01
   200  1.9900000000000E+00  9.0470701499413E-02 -3.2210186398411E-01
   201  2.0000000000000E+00  8.7038867520406E-02 -3.0557361643322E-01
   202  2.0100000000000E+00  8.3367832905510E-02 -2.8890570319913E-01
   203  2.0200000000000E+00  7.9490451867766E-02 -2.7216609123863E-01
   204  2.0300000000000E+00  7.5439613923304E-02 -2.5542231790939E-01
   205  2.0400000000000E+00  7.1248114941358E-02 -2.3874128264590E-01
   206  2.0500000000000E+00  6.6948528277465E-02 -2.2218903780783E-01
   207  2.0600000000000E+00  6.2573076429043E-02 -2.0583057945566E-01
   208  2.0700000000000E+00  5.8153503632939E-02 -1.8972963876884E-01
   209  2.0800000000000E+00  5.3720949805696E-02 -1.7394847478570E-01
   210  2.0900000000000E+00  4.9305826208779E-02 -1.5854766911049E-01
   211  2.1000000000000E+00  4.4937693209628E-02 -1.4358592321542E-01
   212  2.1100000000000E+00  4.0645140488081E-02 -1.2911985892821E-01
   213  2.1200000000000E+00  3.6455670065721E-02 -1.1520382276276E-01
   214  2.1300000000000E+00  3.2395583330787E-02 -1.0188969646773E-01
   215  2.1400000000000E+00  2.8489858203946E-02 -8.9226684105283E-02
   216  2.1500000000000E+00  2.4762085506100E-02 -7.7261221624447E-02
   217  2.1600000000000E+00  2.1234302284565E-02 -6.6036671358630E-02
   218  2.1700000000000E+00  1.7926296792425E-02 -5.5591859076792E-02
   219  2.1800000000000E+00  1.4855139609299E-02 -4.5960079155527E-02
   220  2.1900000000000E+00  1.2038121359175E-02 -3.7175448460139E-02
   221  2.2000000000000E+00  9.4911448980098E-03 -2.9269536925585E-02
   222  2.2100000000000E+00  7.2278281940543E-03 -2.2269485595205E-02
   223  2.2200000000000E+00  5.2596885753361E-03 -1.6198412220365E-02
   224  2.2300000000000E+00  3.5960286938617E-03 -1.1075186887191E-02
   225  2.2400000000000E+00  2.2442631790609E-03 -6.9155190547118E-03
   226  2.2500000000000E+00  1.2080514439876E-03 -3.7262070022525E-03
   227  2.2600000000000E+00  4.8698585539880E-04 -1.5042583885114E-03
   228  2.2700000000000E+00  1.0388724215754E-04 -3.2153030581807E-04
   229  2.2800000000000E+00 -1.0359673199254E-05  3.2149286025659E-05
   230  2.2900000000000E+00 -2.8425621315205E-06  8.8241689678472E-06
   231  2.3000  0. -0.
   232  2.3100 -0.  0.
   233  2.3200 -0.  0.
   234  2.3300 -0.  0.
   235  2.3400  0.  0.
   236  2.3500  0.  0.
   237  2.3600  0.  0.
   238  2.3700  0.  0.
   239  2.3800  0.  0.
   240  2.3900  0.  0.
   241  2.4000  0.  0.
   242  2.4100  0.  0.
   243  2.4200  0.  0.
   244  2.4300  0.  0.
   245  2.4400  0.  0.
   246  2.4500  0.  0.
   247  2.4600  0.  0.
   248  2.4700  0.  0.
   249  2.4800  0.  0.
   250  2.4900  0.  0.
   251  2.5000  0.  0.
   252  2.5100  0.  0.
   253  2.5200  0.  0.
   254  2.5300  0.  0.
   255  2.5400  0.  0.
   256  2.5500  0.  0.
   257  2.5600  0.  0.
   258  2.5700  0.  0.
   259  2.5800  0.  0.
   260  2.5900  0.  0.
   261  2.6000  0.  0.
   262  2.6100  0.  0.
   263  2.6200  0.  0.
   264  2.6300  0.  0.
   265  2.6400  0.  0.
   266  2.6500  0.  0.
   267  2.6600  0.  0.
   268  2.6700  0.  0.
   269  2.6800  0.  0.
   270  2.6900  0.  0.
   271  2.7000  0.  0.
   272  2.7100  0.  0.
   273  2.7200  0.  0.
   274  2.7300  0.  0.
   275  2.7400  0.  0.
   276  2.7500  0.  0.
   277  2.7600  0.  0.
   278  2.7700  0.  0.
   279  2.7800  0.  0.
   280  2.7900  0.  0.
   281  2.8000  0.  0.
   282  2.8100  0.  0.
   283  2.8200  0.  0.
   284  2.8300  0.  0.
   285  2.8400  0.  0.
   286  2.8500  0.  0.
   287  2.8600  0.  0.
   288  2.8700  0.  0.
   289  2.8800  0.  0.
   290  2.8900  0.  0.
   291  2.9000  0.  0.
   292  2.9100  0.  0.
   293  2.9200  0.  0.
   294  2.9300  0.  0.
   295  2.9400  0.  0.
   296  2.9500  0.  0.
   297  2.9600  0.  0.
   298  2.9700  0.  0.
   299  2.9800  0.  0.
   300  2.9900  0.  0.
   301  3.0000  0.  0.
   302  3.0100  0.  0.
   303  3.0200  0.  0.
   304  3.0300  0.  0.
   305  3.0400  0.  0.
   306  3.0500  0.  0.
   307  3.0600  0.  0.
   308  3.0700  0.  0.
   309  3.0800  0.  0.
   310  3.0900  0.  0.
   311  3.1000  0.  0.
   312  3.1100  0.  0.
   313  3.1200  0.  0.
   314  3.1300  0.  0.
   315  3.1400  0.  0.
   316  3.1500  0.  0.
   317  3.1600  0.  0.
   318  3.1700  0.  0.
   319  3.1800  0.  0.
   320  3.1900  0.  0.
   321  3.2000  0.  0.
   322  3.2100  0.  0.
   323  3.2200  0.  0.
   324  3.2300  0.  0.
   325  3.2400  0.  0.
   326  3.2500  0.  0.
   327  3.2600  0.  0.
   328  3.2700  0.  0.
   329  3.2800  0.  0.
   330  3.2900  0.  0.
   331  3.3000  0.  0.
   332  3.3100  0.  0.
   333  3.3200  0.  0.
   334  3.3300  0.  0.
   335  3.3400  0.  0.
   336  3.3500  0.  0.
   337  3.3600  0.  0.
   338  3.3700  0.  0.
   339  3.3800  0.  0.
   340  3.3900  0.  0.
   341  3.4000  0.  0.
   342  3.4100  0.  0.
   343  3.4200  0.  0.
   344  3.4300  0.  0.
   345  3.4400  0.  0.
   346  3.4500  0.  0.
   347  3.4600  0.  0.
   348  3.4700  0.  0.
   349  3.4800  0.  0.
   350  3.4900  0.  0.
   351  3.5000  0.  0.
   352  3.5100  0.  0.
   353  3.5200  0.  0.
   354  3.5300  0.  0.
   355  3.5400  0.  0.
   356  3.5500  0.  0.
   357  3.5600  0.  0.
   358  3.5700  0.  0.
   359  3.5800  0.  0.
   360  3.5900  0.  0.
   361  3.6000  0.  0.
   362  3.6100  0.  0.
   363  3.6200  0.  0.
   364  3.6300  0.  0.
   365  3.6400  0.  0.
   366  3.6500  0.  0.
   367  3.6600  0.  0.
   368  3.6700  0.  0.
   369  3.6800  0.  0.
   370  3.6900  0.  0.
   371  3.7000  0.  0.
   372  3.7100  0.  0.
   373  3.7200  0.  0.
   374  3.7300  0.  0.
   375  3.7400  0.  0.
   376  3.7500  0.  0.
   377  3.7600  0.  0.
   378  3.7700  0.  0.
   379  3.7800  0.  0.
   380  3.7900  0.  0.
   381  3.8000  0.  0.
   382  3.8100  0.  0.
   383  3.8200  0.  0.
   384  3.8300  0.  0.
   385  3.8400  0.  0.
   386  3.8500  0.  0.
   387  3.8600  0.  0.
   388  3.8700  0.  0.
   389  3.8800  0.  0.
   390  3.8900  0.  0.
   391  3.9000  0.  0.
   392  3.9100  0.  0.
   393  3.9200  0.  0.
   394  3.9300  0.  0.
   395  3.9400  0.  0.
   396  3.9500  0.  0.
   397  3.9600  0.  0.
   398  3.9700  0.  0.
   399  3.9800  0.  0.
   400  3.9900  0.  0.
   1                        -5.9860072003019E-01 -1.7166159034128E-01
     1  0.0000000000000E+00 -2.9606591971879E-11  5.3457412108049E-11
     2  1.0000000000000E-02 -3.8267170761746E-06  6.1078439742759E-04
     3  2.0000000000000E-02 -1.4384092052323E-05  2.4406731244563E-03
     4  3.0000000000000E-02 -2.8907954746098E-05  5.4822814618696E-03
     5  4.0000000000000E-02 -4.2805201578931E-05  9.7233304389297E-03
     6  5.0000000000000E-02 -4.9674512497983E-05  1.5146690080498E-02
     7  6.0000000000000E-02 -4.1335248483803E-05  2.1730439763285E-02
     8  7.0000000000000E-02 -7.8644239338762E-06  2.9447945492442E-02
     9  8.0000000000000E-02  6.2358381394289E-05  3.8267953856238E-02
    10  9.0000000000000E-02  1.8259833529724E-04  4.8154702364665E-02
    11  1.0000000000000E-01  3.6770508389525E-04  5.9068045825380E-02
    12  1.1000000000000E-01  6.3404512111558E-04  7.0963598360631E-02
    13  1.2000000000000E-01  9.9942704487208E-04  8.3792890618518E-02
    14  1.3000000000000E-01  1.4830199742090E-03  9.7503541684066E-02
    15  1.4000000000000E-01  2.1052654269837E-03  1.1203944514841E-01
    16  1.5000000000000E-01  2.8877829820183E-03  1.2734096874878E-01
    17  1.6000000000000E-01  3.8532700727549E-03  1.4334516694841E-01
    18  1.7000000000000E-01  5.0253962814428E-03  1.5998600578333E-01
    19  1.8000000000000E-01  6.4286925236973E-03  1.7719459926254E-01
    20  1.9000000000000E-01  8.0884355324965E-03  1.9489945656992E-01
    21  2.0000000000000E-01  1.0030528068780E-02  2.1302673928034E-01
    22  2.1000000000000E-01  1.2281375302201E-02  2.3150052776796E-01
    23  2.2000000000000E-01  1.4867757820622E-02  2.5024309595343E-01
    24  2.3000000000000E-01  1.7816701740279E-02  2.6917519350748E-01
    25  2.4000000000000E-01  2.1155346400315E-02  2.8821633460103E-01
    26  2.5000000000000E-01  2.4910810135474E-02  3.0728509226859E-01
    27  2.6000000000000E-01  2.9110054629122E-02  3.2629939742926E-01
    28  2.7000000000000E-01  3.3779748355402E-02  3.4517684159155E-01
    29  2.8000000000000E-01  3.8946129624252E-02  3.6383498225138E-01
    30  2.9000000000000E-01  4.4634869746090E-02  3.8219164998014E-01
    31  3.0000000000000E-01  5.0870936834326E-02  4.0016525618880E-01
    32  3.1000000000000E-01  5.7678460763403E-02  4.1767510054650E-01
    33  3.2000000000000E-01  6.5080599797736E-02  4.3464167702846E-01
    34  3.3000000000000E-01  7.3099409402995E-02  4.5098697756536E-01
    35  3.4000000000000E-01  8.1755713745179E-02  4.6663479226896E-01
    36  3.5000000000000E-01  9.1068980375499E-02  4.8151100521279E-01
    37  3.6000000000000E-01  1.0105719858963E-01  4.9554388475459E-01
    38  3.7000000000000E-01  1.1173676193892E-01  5.0866436739784E-01
    39  3.8000000000000E-01  1.2312235535845E-01  5.2080633420366E-01
    40  3.9000000000000E-01  1.3522684736235E-01  5.3190687878106E-01
    41  4.0000000000000E-01  1.4806118774099E-01  5.4190656590347E-01
    42  4.1000000000000E-01  1.6163431117717E-01  5.5074967982229E-01
    43  4.2000000000000E-01  1.7595304717928E-01  5.5838446137416E-01
    44  4.3000000000000E-01  1.9102203670929E-01  5.6476333300735E-01
    45  4.4000000000000E-01  2.0684365586137E-01  5.6984311088421E-01
    46  4.5000000000000E-01  2.2341794692417E-01  5.7358520325146E-01
    47  4.6000000000000E-01  2.4074255713538E-01  5.7595579430686E-01
    48  4.7000000000000E-01  2.5881268541174E-01  5.7692601283125E-01
    49  4.8000000000000E-01  2.7762103731132E-01  5.7647208489700E-01
    50  4.9000000000000E-01  2.9715778845741E-01  5.7457547000948E-01
    51  5.0000000000000E-01  3.1741055662504E-01  5.7122298008521E-01
    52  5.1000000000000E-01  3.3836438266194E-01  5.6640688072057E-01
    53  5.2000000000000E-01  3.6000172038604E-01  5.6012497425681E-01
    54  5.3000000000000E-01  3.8230243557119E-01  5.5238066420131E-01
    55  5.4000000000000E-01  4.0524381410170E-01  5.4318300062113E-01
    56  5.5000000000000E-01  4.2880057934501E-01  5.3254670618312E-01
    57  5.6000000000000E-01  4.5294491876041E-01  5.2049218257424E-01
    58  5.7000000000000E-01  4.7764651972926E-01  5.0704549709715E-01
    59  5.8000000000000E-01  5.0287261456099E-01  4.9223834929887E-01
    60  5.9000000000000E-01  5.2858803459651E-01  4.7610801755404E-01
    61  6.0000000000000E-01  5.5475527329922E-01  4.5869728558944E-01
    62  6.1000000000000E-01  5.8133455819226E-01  4.4005434900208E-01
    63  6.2000000000000E-01  6.0828393146883E-01  4.2023270189006E-01
    64  6.3000000000000E-01  6.3555933907226E-01  3.9929100378210E-01
    65  6.4000000000000E-01  6.6311472801151E-01  3.7729292711938E-01
    66  6.5000000000000E-01  6.9090215164860E-01  3.5430698561068E-01
    67  6.6000000000000E-01  7.1887188266503E-01  3.3040634384934E-01
    68  6.7000000000000E-01  7.4697253338652E-01  3.0566860864762E-01
    69  6.8000000000000E-01  7.7515118311800E-01  2.8017560261068E-01
    70  6.9000000000000E-01  8.0335351211451E-01  2.5401312053842E-01
    71  7.0000000000000E-01  8.3152394178880E-01  2.2727066930816E-01
    72  7.1000000000000E-01  8.5960578073254E-01  2.0004119195484E-01
    73  7.2000000000000E-01  8.8754137610535E-01  1.7242077672801E-01
    74  7.3000000000000E-01  9.1527226992482E-01  1.4450835196517E-01
    75  7.4000000000000E-01  9.4273935977091E-01  1.1640536767988E-01
    76  7.5000000000000E-01  9.6988306340006E-01  8.8215464819926E-02
    77  7.6000000000000E-01  9.9664348674746E-01  6.0044133204630E-02
    78  7.7000000000000E-01  1.0229605947814E+00  3.1998359202553E-02
    79  7.8000000000000E-01  1.0487743846603E+00  4.1862642593738E-03
    80  7.9000000000000E-01  1.0740250606308E+00 -2.3283264568387E-02
    81  8.0000000000000E-01  1.0986532100984E+00 -5.0300950875354E-02
    82  8.1000000000000E-01  1.1225999802899E+00 -7.6757510727905E-02
    83  8.2000000000000E-01  1.1458072549263E+00 -1.0254403877041E-01
    84  8.3000000000000E-01  1.1682178303172E+00 -1.2755239731304E-01
    85  8.4000000000000E-01  1.1897755902873E+00 -1.5167560706940E-01
    86  8.5000000000000E-01  1.2104256793465E+00 -1.7480823818924E-01
    87  8.6000000000000E-01  1.2301146735157E+00 -1.9684680021254E-01
    88  8.7000000000000E-01  1.2487907482267E+00 -2.1769012955757E-01
    89  8.8000000000000E-01  1.2664038427187E+00 -2.3723977314558E-01
    90  8.9000000000000E-01  1.2829058203631E+00 -2.5540036676071E-01
    91  9.0000000000000E-01  1.2982506243605E+00 -2.7208000674399E-01
    92  9.1000000000000E-01  1.3123944282620E+00 -2.8719061362593E-01
    93  9.2000000000000E-01  1.3252957807854E+00 -3.0064828631258E-01
    94  9.3000000000000E-01  1.3369157444105E+00 -3.1237364545682E-01
    95  9.4000000000000E-01  1.3472180272565E+00 -3.2229216466659E-01
    96  9.5000000000000E-01  1.3561691077652E+00 -3.3033448822954E-01
    97  9.6000000000000E-01  1.3637383517338E+00 -3.3643673406464E-01
    98  9.7000000000000E-01  1.3698981212663E+00 -3.4054078064864E-01
    99  9.8000000000000E-01  1.3746238752371E+00 -3.4259453670819E-01
   100  9.9000000000000E-01  1.3778942608860E+00 -3.4255219251484E-01
   101  1.0000000000000E+00  1.3796911961937E+00 -3.4037445167410E-01
   102  1.0100000000000E+00  1.3799999427160E+00 -3.3602874235671E-01
   103  1.0200000000000E+00  1.3788091685844E+00 -3.2948940698256E-01
   104  1.0300000000000E+00  1.3761110014159E+00 -3.2073786943576E-01
   105  1.0400000000000E+00  1.3719010709052E+00 -3.0976277896021E-01
   106  1.0500000000000E+00  1.3661785409087E+00 -2.9656012996135E-01
   107  1.0600000000000E+00  1.3589461308638E+00 -2.8113335702025E-01
   108  1.0700000000000E+00  1.3502101264241E+00 -2.6349340450931E-01
   109  1.0800000000000E+00  1.3399803792256E+00 -2.4365877028677E-01
   110  1.0900000000000E+00  1.3282702957395E+00 -2.2165552303825E-01
   111  1.1000000000000E+00  1.3150968152003E+00 -1.9751729292602E-01
   112  1.1100000000000E+00  1.3004803766404E+00 -1.7128523530414E-01
   113  1.1200000000000E+00  1.2844448750959E+00 -1.4300796735508E-01
   114  1.1300000000000E+00  1.2670176070887E+00 -1.1274147760424E-01
   115  1.1400000000000E+00  1.2482292055271E+00 -8.0549008369848E-02
   116  1.1500000000000E+00  1.2281135642042E+00 -4.6500911309138E-02
   117  1.1600000000000E+00  1.2067077521088E+00 -1.0674476324592E-02
   118  1.1700000000000E+00  1.1840519178036E+00  2.6846265802663E-02
   119  1.1800000000000E+00  1.1601891841556E+00  6.5970766581356E-02
   120  1.1900000000000E+00  1.1351655337429E+00  1.0660220820775E-01
   121  1.2000000000000E+00  1.1090296852928E+00  1.4863777651773E-01
   122  1.2100000000000E+00  1.0818329615387E+00  1.9196895771945E-01
   123  1.2200000000000E+00  1.0536291489161E+00  2.3648185803486E-01
   124  1.2300000000000E+00  1.0244743495453E+00  2.8205754528319E-01
   125  1.2400000000000E+00  9.9442682597750E-01  3.2857241134790E-01
   126  1.2500000000000E+00  9.6354683920707E-01  3.7589855437962E-01
   127  1.2600000000000E+00  9.3189648047812E-01  4.2390417950349E-01
   128  1.2700000000000E+00  8.9953949743430E-01  4.7245401671848E-01
   129  1.2800000000000E+00  8.6654111518297E-01  5.2140975460112E-01
   130  1.2900000000000E+00  8.3296785286249E-01  5.7063048835572E-01
   131  1.3000000000000E+00  7.9888733631796E-01  6.1997318068841E-01
   132  1.3100000000000E+00  7.6436810750463E-01  6.6929313392292E-01
   133  1.3200000000000E+00  7.2947943124970E-01  7.1844447172454E-01
   134  1.3300000000000E+00  6.9429110001272E-01  7.6728062875135E-01
   135  1.3400000000000E+00  6.5887323729144E-01  8.1565484651382E-01
   136  1.3500000000000E+00  6.2329610032400E-01  8.6342067369089E-01