Sc    ONCVPSP-4.0.1  r_core=   2.50408   2.50408   2.37282
     21.0000     11.0000      220318    zatom,zion,pspd
     8      11   2     4   600     0    pspcod,pspxc,lmax,lloc,mmax,r2well
  5.99000000  5.00000000  0.00000000    rchrg fchrg qchrg
     2     2     2     0     0    nproj
     1     1           extension_switch
   0                         4.9145486723953E+00  7.7526975548642E-01
     1  0.0000000000000E+00  1.2645995361993E-12 -5.4886928335662E-12
     2  1.0000000000000E-02  5.4763416636653E-02 -1.9101441728290E-02
     3  2.0000000000000E-02  1.0944812625671E-01 -3.8137240172124E-02
     4  3.0000000000000E-02  1.6397555174176E-01 -5.7041876842058E-02
     5  4.0000000000000E-02  2.1826737561068E-01 -7.5750082789800E-02
     6  5.0000000000000E-02  2.7224566944007E-01 -9.4196963255197E-02
     7  6.0000000000000E-02  3.2583302280604E-01 -1.1231812216104E-01
     8  7.0000000000000E-02  3.7895267158617E-01 -1.3004978639855E-01
     9  8.0000000000000E-02  4.3152862545949E-01 -1.4732892984086E-01
    10  9.0000000000000E-02  4.8348579444037E-01 -1.6409339701526E-01
    11  1.0000000000000E-01  5.3475011428091E-01 -1.8028202635687E-01
    12  1.1000000000000E-01  5.8524867057404E-01 -1.9583477295739E-01
    13  1.2000000000000E-01  6.3490982138744E-01 -2.1069283071243E-01
    14  1.3000000000000E-01  6.8366331825596E-01 -2.2479875375972E-01
    15  1.4000000000000E-01  7.3144042535780E-01 -2.3809657708848E-01
    16  1.5000000000000E-01  7.7817403669700E-01 -2.5053193618748E-01
    17  1.6000000000000E-01  8.2379879111210E-01 -2.6205218558566E-01
    18  1.7000000000000E-01  8.6825118492837E-01 -2.7260651612529E-01
    19  1.8000000000000E-01  9.1146968206812E-01 -2.8214607079314E-01
    20  1.9000000000000E-01  9.5339482143147E-01 -2.9062405892031E-01
    21  2.0000000000000E-01  9.9396932135719E-01 -2.9799586854642E-01
    22  2.1000000000000E-01  1.0331381809715E+00 -3.0421917672915E-01
    23  2.2000000000000E-01  1.0708487782305E+00 -3.0925405756487E-01
    24  2.3000000000000E-01  1.1070509644605E+00 -3.1306308767213E-01
    25  2.4000000000000E-01  1.1416971551994E+00 -3.1561144887501E-01
    26  2.5000000000000E-01  1.1747424171412E+00 -3.1686702781037E-01
    27  2.6000000000000E-01  1.2061445509860E+00 -3.1680051216975E-01
    28  2.7000000000000E-01  1.2358641699970E+00 -3.1538548327495E-01
    29  2.8000000000000E-01  1.2638647740683E+00 -3.1259850467508E-01
    30  2.9000000000000E-01  1.2901128191079E+00 -3.0841920644331E-01
    31  3.0000000000000E-01  1.3145777815412E+00 -3.0283036484257E-01
    32  3.1000000000000E-01  1.3372322177463E+00 -2.9581797702261E-01
    33  3.2000000000000E-01  1.3580518182326E+00 -2.8737133040489E-01
    34  3.3000000000000E-01  1.3770154563804E+00 -2.7748306640788E-01
    35  3.4000000000000E-01  1.3941052315647E+00 -2.6614923816268E-01
    36  3.5000000000000E-01  1.4093065064898E+00 -2.5336936186915E-01
    37  3.6000000000000E-01  1.4226079385729E+00 -2.3914646144306E-01
    38  3.7000000000000E-01  1.4340015052171E+00 -2.2348710610936E-01
    39  3.8000000000000E-01  1.4434825228276E+00 -2.0640144060116E-01
    40  3.9000000000000E-01  1.4510496594315E+00 -1.8790320763253E-01
    41  4.0000000000000E-01  1.4567049407745E+00 -1.6800976232233E-01
    42  4.1000000000000E-01  1.4604537497762E+00 -1.4674207825862E-01
    43  4.2000000000000E-01  1.4623048192413E+00 -1.2412474490752E-01
    44  4.3000000000000E-01  1.4622702177351E+00 -1.0018595608650E-01
    45  4.4000000000000E-01  1.4603653285469E+00 -7.4957489241177E-02
    46  4.5000000000000E-01  1.4566088216786E+00 -4.8474675285283E-02
    47  4.6000000000000E-01  1.4510226188136E+00 -2.0776358786721E-02
    48  4.7000000000000E-01  1.4436318512358E+00  8.0951516922194E-03
    49  4.8000000000000E-01  1.4344648106866E+00  3.8094143265148E-02
    50  4.9000000000000E-01  1.4235528931658E+00  6.9171568537593E-02
    51  5.0000000000000E-01  1.4109305357013E+00  1.0127512567300E-01
    52  5.1000000000000E-01  1.3966351461307E+00  1.3434934877955E-01
    53  5.2000000000000E-01  1.3807070259594E+00  1.6833570865428E-01
    54  5.3000000000000E-01  1.3631892863777E+00  2.0317272388415E-01
    55  5.4000000000000E-01  1.3441277575425E+00  2.3879608226616E-01
    56  5.5000000000000E-01  1.3235708912481E+00  2.7513877246938E-01
    57  5.6000000000000E-01  1.3015696571344E+00  3.1213122582099E-01
    58  5.7000000000000E-01  1.2781774325973E+00  3.4970146805759E-01
    59  5.8000000000000E-01  1.2534498865950E+00  3.8777528084026E-01
    60  5.9000000000000E-01  1.2274448575567E+00  4.2627637278902E-01
    61  6.0000000000000E-01  1.2002222256293E+00  4.6512655974891E-01
    62  6.1000000000000E-01  1.1718437795136E+00  5.0424595395598E-01
    63  6.2000000000000E-01  1.1423730781642E+00  5.4355316172745E-01
    64  6.3000000000000E-01  1.1118753076492E+00  5.8296548925679E-01
    65  6.4000000000000E-01  1.0804171334819E+00  6.2239915605015E-01
    66  6.5000000000000E-01  1.0480665487619E+00  6.6176951549811E-01
    67  6.6000000000000E-01  1.0148927184756E+00  7.0099128203373E-01
    68  6.7000000000000E-01  9.8096582032882E-01  7.3997876428640E-01
    69  6.8000000000000E-01  9.4635688249995E-01  7.7864610360043E-01
    70  6.9000000000000E-01  9.1113761871762E-01  8.1690751724789E-01
    71  7.0000000000000E-01  8.7538026108368E-01  8.5467754562750E-01
    72  7.1000000000000E-01  8.3915739107564E-01  8.9187130270516E-01
    73  7.2000000000000E-01  8.0254176917634E-01  9.2840472891697E-01
    74  7.3000000000000E-01  7.6560616359016E-01  9.6419484572399E-01
    75  7.4000000000000E-01  7.2842317851629E-01  9.9916001097715E-01
    76  7.5000000000000E-01  6.9106508245830E-01  1.0332201742232E+00
    77  7.6000000000000E-01  6.5360363705751E-01  1.0662971310575E+00
    78  7.7000000000000E-01  6.1610992694398E-01  1.0983147756064E+00
    79  7.8000000000000E-01  5.7865419110378E-01  1.1291993502028E+00
    80  7.9000000000000E-01  5.4130565626463E-01  1.1588796913014E+00
    81  8.0000000000000E-01  5.0413237280381E-01  1.1872874706651E+00
    82  8.1000000000000E-01  4.6720105368222E-01  1.2143574308466E+00
    83  8.2000000000000E-01  4.3057691690718E-01  1.2400276139774E+00
    84  8.3000000000000E-01  3.9432353202322E-01  1.2642395828765E+00
    85  8.4000000000000E-01  3.5850267112549E-01  1.2869386334875E+00
    86  8.5000000000000E-01  3.2317416488376E-01  1.3080739976571E+00
    87  8.6000000000000E-01  2.8839576405702E-01  1.3275990352729E+00
    88  8.7000000000000E-01  2.5422300696865E-01  1.3454714147900E+00
    89  8.8000000000000E-01  2.2070909340113E-01  1.3616532811871E+00
    90  8.9000000000000E-01  1.8790476535579E-01  1.3761114104093E+00
    91  9.0000000000000E-01  1.5585819510891E-01  1.3888173493783E+00
    92  9.1000000000000E-01  1.2461488097915E-01  1.3997475406684E+00
    93  9.2000000000000E-01  9.4217551203852E-02  1.4088834309794E+00
    94  9.3000000000000E-01  6.4706076302849E-02  1.4162115625631E+00
    95  9.4000000000000E-01  3.6117390287754E-02  1.4217236467956E+00
    96  9.5000000000000E-01  8.4854210535689E-03  1.4254166191244E+00
    97  9.6000000000000E-01 -1.8158969733811E-02  1.4272926746557E+00
    98  9.7000000000000E-01 -4.3788036964329E-02  1.4273592836933E+00
    99  9.8000000000000E-01 -6.8377192360002E-02  1.4256291865819E+00
   100  9.9000000000000E-01 -9.1905034461856E-02  1.4221203672572E+00
   101  1.0000000000000E+00 -1.1435336811563E-01  1.4168560049539E+00
   102  1.0100000000000E+00 -1.3570721327190E-01  1.4098644035742E+00
   103  1.0200000000000E+00 -1.5595480294459E-01  1.4011788982750E+00
   104  1.0300000000000E+00 -1.7508757020066E-01  1.3908377388855E+00
   105  1.0400000000000E+00 -1.9310012408299E-01  1.3788839498248E+00
   106  1.0500000000000E+00 -2.0999021439828E-01  1.3653651662502E+00
   107  1.0600000000000E+00 -2.2575868533145E-01  1.3503334462213E+00
   108  1.0700000000000E+00 -2.4040941787822E-01  1.3338450587319E+00
   109  1.0800000000000E+00 -2.5394926111726E-01  1.3159602475186E+00
   110  1.0900000000000E+00 -2.6638795237362E-01  1.2967429706177E+00
   111  1.1000000000000E+00 -2.7773802635423E-01  1.2762606157070E+00
   112  1.1100000000000E+00 -2.8801471336615E-01  1.2545836913254E+00
   113  1.1200000000000E+00 -2.9723582675679E-01  1.2317854941316E+00
   114  1.1300000000000E+00 -3.0542163974364E-01  1.2079417524185E+00
   115  1.1400000000000E+00 -3.1259475182887E-01  1.1831302461635E+00
   116  1.1500000000000E+00 -3.1877994502098E-01  1.1574304039551E+00
   117  1.1600000000000E+00 -3.2400403011155E-01  1.1309228771910E+00
   118  1.1700000000000E+00 -3.2829568328040E-01  1.1036890920024E+00
   119  1.1800000000000E+00 -3.3168527332632E-01  1.0758107794142E+00
   120  1.1900000000000E+00 -3.3420467984336E-01  1.0473694843029E+00
   121  1.2000000000000E+00 -3.3588710268438E-01  1.0184460537643E+00
   122  1.2100000000000E+00 -3.3676686307367E-01  9.8912010555623E-01
   123  1.2200000000000E+00 -3.3687919674953E-01  9.5946947732056E-01
   124  1.2300000000000E+00 -3.3626003953505E-01  9.2956965734057E-01
   125  1.2400000000000E+00 -3.3494580575129E-01  8.9949319762395E-01
   126  1.2500000000000E+00 -3.3297315990148E-01  8.6930911014345E-01
   127  1.2600000000000E+00 -3.3037878206753E-01  8.3908224710035E-01
   128  1.2700000000000E+00 -3.2719912747154E-01  8.0887266610812E-01
   129  1.2800000000000E+00 -3.2347018066399E-01  7.7873498122123E-01
   130  1.2900000000000E+00 -3.1922720470259E-01  7.4871770005119E-01
   131  1.3000000000000E+00 -3.1450448767093E-01  7.1886256081284E-01
   132  1.3100000000000E+00 -3.0933508032893E-01  6.8920382407985E-01
   133  1.3200000000000E+00 -3.0375082518264E-01  6.5976957430415E-01
   134  1.3300000000000E+00 -2.9778289844134E-01  6.3058622587767E-01
   135  1.3400000000000E+00 -2.9146198816180E-01  6.0168003806580E-01
   136  1.3500000000000E+00 -2.8481825481062E-01  5.7307702455830E-01
   137  1.3600000000000E+00 -2.7788129836569E-01  5.4480289951314E-01
   138  1.3700000000000E+00 -2.7068012611055E-01  5.1688301785180E-01
   139  1.3800000000000E+00 -2.6324312137680E-01  4.8934231253436E-01
   140  1.3900000000000E+00 -2.5559801457580E-01  4.6220523734990E-01
   141  1.4000000000000E+00 -2.4777185519602E-01  4.3549570692449E-01
   142  1.4100000000000E+00 -2.3979098559515E-01  4.0923703927745E-01
   143  1.4200000000000E+00 -2.3168101628527E-01  3.8345189910276E-01
   144  1.4300000000000E+00 -2.2346680278343E-01  3.5816224232006E-01
   145  1.4400000000000E+00 -2.1517242401771E-01  3.3338926192931E-01
   146  1.4500000000000E+00 -2.0682116230193E-01  3.0915333534558E-01
   147  1.4600000000000E+00 -1.9843548494430E-01  2.8547397366245E-01
   148  1.4700000000000E+00 -1.9003702704070E-01  2.6236977052348E-01
   149  1.4800000000000E+00 -1.8164657735247E-01  2.3985836095356E-01
   150  1.4900000000000E+00 -1.7328406259399E-01  2.1795636505624E-01
   151  1.5000000000000E+00 -1.6496853736665E-01  1.9667935567342E-01
   152  1.5100000000000E+00 -1.5671817260812E-01  1.7604181171282E-01
   153  1.5200000000000E+00 -1.4855024706484E-01  1.5605708151510E-01
   154  1.5300000000000E+00 -1.4048114003305E-01  1.3673734693385E-01
   155  1.5400000000000E+00 -1.3252632579015E-01  1.1809359050622E-01
   156  1.5500000000000E+00 -1.2470036965972E-01  1.0013556552186E-01
   157  1.5600000000000E+00 -1.1701692571890E-01  8.2871769154556E-02
   158  1.5700000000000E+00 -1.0948873615746E-01  6.6309418821235E-02
   159  1.5800000000000E+00 -1.0212763229202E-01  5.0454431905891E-02
   160  1.5900000000000E+00 -9.4944537223297E-02  3.5311408911354E-02
   161  1.6000000000000E+00 -8.7949470149808E-02  2.0883620230389E-02
   162  1.6100000000000E+00 -8.1151552322871E-02  7.1729965900453E-03
   163  1.6200000000000E+00 -7.4559014632372E-02 -5.8198767504807E-03
   164  1.6300000000000E+00 -6.8179206820398E-02 -1.8095761927948E-02
   165  1.6400000000000E+00 -6.2018608296252E-02 -2.9656766518264E-02
   166  1.6500000000000E+00 -5.6082840541110E-02 -4.0506337609265E-02
   167  1.6600000000000E+00 -5.0376681066979E-02 -5.0649251924620E-02
   168  1.6700000000000E+00 -4.4904078912769E-02 -6.0091601931471E-02
   169  1.6800000000000E+00 -3.9668171633544E-02 -6.8840777984504E-02
   170  1.6900000000000E+00 -3.4671303744589E-02 -7.6905446528211E-02
   171  1.7000000000000E+00 -2.9915046582810E-02 -8.4295524371584E-02
   172  1.7100000000000E+00 -2.5400219527526E-02 -9.1022149138397E-02
   173  1.7200000000000E+00 -2.1126912535512E-02 -9.7097645934071E-02
   174  1.7300000000000E+00 -1.7094509922256E-02 -1.0253549036947E-01
   175  1.7400000000000E+00 -1.3301715338334E-02 -1.0735026800314E-01
   176  1.7500000000000E+00 -9.7465778679079E-03 -1.1155763035822E-01
   177  1.7600000000000E+00 -6.4265191770251E-03 -1.1517424766390E-01
   178  1.7700000000000E+00 -3.3383616484171E-03 -1.1821775843074E-01
   179  1.7800000000000E+00 -4.7835742043076E-04 -1.2070671605098E-01
   180  1.7900000000000E+00  2.1577817491310E-03 -1.2266053259985E-01
   181  1.8000000000000E+00  4.5748538639482E-03 -1.2409941997360E-01
   182  1.8100000000000E+00  6.7781354065128E-03 -1.2504432859386E-01
   183  1.8200000000000E+00  8.7733494622246E-03 -1.2551688381882E-01
   184  1.8300000000000E+00  1.0566633332900E-02 -1.2553932025617E-01
   185  1.8400000000000E+00  1.2164505765351E-02 -1.2513441435316E-01
   186  1.8500000000000E+00  1.3573833704270E-02 -1.2432541474077E-01
   187  1.8600000000000E+00  1.4801798949074E-02 -1.2313597177283E-01
   188  1.8700000000000E+00  1.5855864575247E-02 -1.2159006554148E-01
   189  1.8800000000000E+00  1.6743741067183E-02 -1.1971193201566E-01
   190  1.8900000000000E+00  1.7473352658257E-02 -1.1752598923969E-01
   191  1.9000000000000E+00  1.8052803553569E-02 -1.1505676211758E-01
   192  1.9100000000000E+00  1.8490344300332E-02 -1.1232880677020E-01
   193  1.9200000000000E+00  1.8794338329583E-02 -1.0936663445216E-01
   194  1.9300000000000E+00  1.8973228739803E-02 -1.0619463521820E-01
   195  1.9400000000000E+00  1.9035505397060E-02 -1.0283700154964E-01
   196  1.9500000000000E+00  1.8989672418538E-02 -9.9317652126793E-02
   197  1.9600000000000E+00  1.8844216108037E-02 -9.5660155945241E-02
   198  1.9700000000000E+00  1.8607573418706E-02 -9.1887657007195E-02
   199  1.9800000000000E+00  1.8288101018441E-02 -8.8022799824767E-02
   200  1.9900000000000E+00  1.7894045030638E-02 -8.4087655966160E-02
   201  2.0000000000000E+00  1.7433511534161E-02 -8.0103651925724E-02
   202  2.0100000000000E+00  1.6914437912122E-02 -7.6091498625799E-02
   203  2.0200000000000E+00  1.6344565136776E-02 -7.2071122853274E-02
   204  2.0300000000000E+00  1.5731411088767E-02 -6.8061600980819E-02
   205  2.0400000000000E+00  1.5082245019348E-02 -6.4081095367367E-02
   206  2.0500000000000E+00  1.4404063259635E-02 -6.0146793816703E-02
   207  2.0600000000000E+00  1.3703566304416E-02 -5.6274852568345E-02
   208  2.0700000000000E+00  1.2987137388405E-02 -5.2480343258754E-02
   209  2.0800000000000E+00  1.2260822686772E-02 -4.8777204347434E-02
   210  2.0900000000000E+00  1.1530313279613E-02 -4.5178197534704E-02
   211  2.1000000000000E+00  1.0800929022677E-02 -4.1694869709399E-02
   212  2.1100000000000E+00  1.0077604458295E-02 -3.8337520933152E-02
   213  2.1200000000000E+00  9.3648769202406E-03 -3.5115179046563E-02
   214  2.1300000000000E+00  8.6668769675854E-03 -3.2035581410780E-02
   215  2.1400000000000E+00  7.9873212823327E-03 -2.9105164298685E-02
   216  2.1500000000000E+00  7.3295081646898E-03 -2.6329060448219E-02
   217  2.1600000000000E+00  6.6963157333524E-03 -2.3711105189654E-02
   218  2.1700000000000E+00  6.0902029304752E-03 -2.1253851532511E-02
   219  2.1800000000000E+00  5.5132134130770E-03 -1.8958594531537E-02
   220  2.1900000000000E+00  4.9669823834884E-03 -1.6825405143749E-02
   221  2.2000000000000E+00  4.4527463778220E-03 -1.4853173663519E-02
   222  2.2100000000000E+00  3.9713560090928E-03 -1.3039662743568E-02
   223  2.2200000000000E+00  3.5232916198613E-03 -1.1381569855999E-02
   224  2.2300000000000E+00  3.1086817570268E-03 -9.8745988938643E-03
   225  2.2400000000000E+00  2.7273243392485E-03 -8.5135404604363E-03
   226  2.2500000000000E+00  2.3787103532190E-03 -7.2923602719538E-03
   227  2.2600000000000E+00  2.0620498541844E-03 -6.2042948782234E-03
   228  2.2700000000000E+00  1.7763000093436E-03 -5.2419537757008E-03
   229  2.2800000000000E+00  1.5201948916608E-03 -4.3974268789962E-03
   230  2.2900000000000E+00  1.2922766679464E-03 -3.6623960866522E-03
   231  2.3000000000000E+00  1.0909278034857E-03 -3.0282496063852E-03
   232  2.3100000000000E+00  9.1440387487605E-04 -2.4861975992930E-03
   233  2.3200000000000E+00  7.6086656321333E-04 -2.0273876362932E-03
   234  2.3300000000000E+00  6.2841636633811E-04 -1.6430183460217E-03
   235  2.3400000000000E+00  5.1512490502337E-04 -1.3244512194484E-03
   236  2.3500000000000E+00  4.1906296516443E-04 -1.0633029881964E-03
   237  2.3600000000000E+00  3.3833823755174E-04 -8.5158444266706E-04
   238  2.3700000000000E+00  2.7111069192775E-04 -6.8173681128795E-04
   239  2.3800000000000E+00  2.1560052826204E-04 -5.4663544037210E-04
   240  2.3900000000000E+00  1.6994215065964E-04 -4.3885757116750E-04
   241  2.4000000000000E+00  1.3246394836853E-04 -3.5197364522303E-04
   242  2.4100000000000E+00  1.0192508221258E-04 -2.8164594890708E-04
   243  2.4200000000000E+00  7.7195531080804E-05 -2.2411163441849E-04
   244  2.4300000000000E+00  5.7278233455741E-05 -1.7626674828701E-04
   245  2.4400000000000E+00  4.1328407735328E-05 -1.3574012495080E-04
   246  2.4500000000000E+00  2.8651391193889E-05 -1.0087277522222E-04
   247  2.4600000000000E+00  1.8701680152854E-05 -7.0706872390782E-05
   248  2.4700000000000E+00  1.1080361847869E-05 -4.4972768959973E-05
   249  2.4800000000000E+00  5.4834700684891E-06 -2.3821260918374E-05
   250  2.4900000000000E+00  1.8728641318461E-06 -8.7318530722043E-06
   251  2.5000000000000E+00  1.9547716572079E-07 -1.0615673105713E-06
   252  2.5100000000000E+00 -1.4845207026431E-07  6.9241185280692E-07
   253  2.5200000000000E+00  9.6905074819968E-09 -4.4871681300244E-08
   254  2.53  0. -0.
   255  2.54 -0.  0.
   256  2.55  0. -0.
   257  2.56  0. -0.
   258  2.57  0.  0.
   259  2.58  0.  0.
   260  2.59  0.  0.
   261  2.60  0.  0.
   262  2.61  0.  0.
   263  2.62  0.  0.
   264  2.63  0.  0.
   265  2.64  0.  0.
   266  2.65  0.  0.
   267  2.66  0.  0.
   268  2.67  0.  0.
   269  2.68  0.  0.
   270  2.69  0.  0.
   271  2.70  0.  0.
   272  2.71  0.  0.
   273  2.72  0.  0.
   274  2.73  0.  0.
   275  2.74  0.  0.
   276  2.75  0.  0.
   277  2.76  0.  0.
   278  2.77  0.  0.
   279  2.78  0.  0.
   280  2.79  0.  0.
   281  2.80  0.  0.
   282  2.81  0.  0.
   283  2.82  0.  0.
   284  2.83  0.  0.
   285  2.84  0.  0.
   286  2.85  0.  0.
   287  2.86  0.  0.
   288  2.87  0.  0.
   289  2.88  0.  0.
   290  2.89  0.  0.
   291  2.90  0.  0.
   292  2.91  0.  0.
   293  2.92  0.  0.
   294  2.93  0.  0.
   295  2.94  0.  0.
   296  2.95  0.  0.
   297  2.96  0.  0.
   298  2.97  0.  0.
   299  2.98  0.  0.
   300  2.99  0.  0.
   301  3.00  0.  0.
   302  3.01  0.  0.
   303  3.02  0.  0.
   304  3.03  0.  0.
   305  3.04  0.  0.
   306  3.05  0.  0.
   307  3.06  0.  0.
   308  3.07  0.  0.
   309  3.08  0.  0.
   310  3.09  0.  0.
   311  3.10  0.  0.
   312  3.11  0.  0.
   313  3.12  0.  0.
   314  3.13  0.  0.
   315  3.14  0.  0.
   316  3.15  0.  0.
   317  3.16  0.  0.
   318  3.17  0.  0.
   319  3.18  0.  0.
   320  3.19  0.  0.
   321  3.20  0.  0.
   322  3.21  0.  0.
   323  3.22  0.  0.
   324  3.23  0.  0.
   325  3.24  0.  0.
   326  3.25  0.  0.
   327  3.26  0.  0.
   328  3.27  0.  0.
   329  3.28  0.  0.
   330  3.29  0.  0.
   331  3.30  0.  0.
   332  3.31  0.  0.
   333  3.32  0.  0.
   334  3.33  0.  0.
   335  3.34  0.  0.
   336  3.35  0.  0.
   337  3.36  0.  0.
   338  3.37  0.  0.
   339  3.38  0.  0.
   340  3.39  0.  0.
   341  3.40  0.  0.
   342  3.41  0.  0.
   343  3.42  0.  0.
   344  3.43  0.  0.
   345  3.44  0.  0.
   346  3.45  0.  0.
   347  3.46  0.  0.
   348  3.47  0.  0.
   349  3.48  0.  0.
   350  3.49  0.  0.
   351  3.50  0.  0.
   352  3.51  0.  0.
   353  3.52  0.  0.
   354  3.53  0.  0.
   355  3.54  0.  0.
   356  3.55  0.  0.
   357  3.56  0.  0.
   358  3.57  0.  0.
   359  3.58  0.  0.
   360  3.59  0.  0.
   361  3.60  0.  0.
   362  3.61  0.  0.
   363  3.62  0.  0.
   364  3.63  0.  0.
   365  3.64  0.  0.
   366  3.65  0.  0.
   367  3.66  0.  0.
   368  3.67  0.  0.
   369  3.68  0.  0.
   370  3.69  0.  0.
   371  3.70  0.  0.
   372  3.71  0.  0.
   373  3.72  0.  0.
   374  3.73  0.  0.
   375  3.74  0.  0.
   376  3.75  0.  0.
   377  3.76  0.  0.
   378  3.77  0.  0.
   379  3.78  0.  0.
   380  3.79  0.  0.
   381  3.80  0.  0.
   382  3.81  0.  0.
   383  3.82  0.  0.
   384  3.83  0.  0.
   385  3.84  0.  0.
   386  3.85  0.  0.
   387  3.86  0.  0.
   388  3.87  0.  0.
   389  3.88  0.  0.
   390  3.89  0.  0.
   391  3.90  0.  0.
   392  3.91  0.  0.
   393  3.92  0.  0.
   394  3.93  0.  0.
   395  3.94  0.  0.
   396  3.95  0.  0.
   397  3.96  0.  0.
   398  3.97  0.  0.
   399  3.98  0.  0.
   400  3.99  0.  0.
   401  4.00  0.  0.
   402  4.01  0.  0.
   403  4.02  0.  0.
   404  4.03  0.  0.
   405  4.04  0.  0.
   406  4.05  0.  0.
   407  4.06  0.  0.
   408  4.07  0.  0.
   409  4.08  0.  0.
   410  4.09  0.  0.
   411  4.10  0.  0.
   412  4.11  0.  0.
   413  4.12  0.  0.
   414  4.13  0.  0.
   415  4.14  0.  0.
   416  4.15  0.  0.
   417  4.16  0.  0.
   418  4.17  0.  0.
   419  4.18  0.  0.
   420  4.19  0.  0.
   421  4.20  0.  0.
   422  4.21  0.  0.
   423  4.22  0.  0.
   424  4.23  0.  0.
   425  4.24  0.  0.
   426  4.25  0.  0.
   427  4.26  0.  0.
   428  4.27  0.  0.
   429  4.28  0.  0.
   430  4.29  0.  0.
   431  4.30  0.  0.
   432  4.31  0.  0.
   433  4.32  0.  0.
   434  4.33  0.  0.
   435  4.34  0.  0.
   436  4.35  0.  0.
   437  4.36  0.  0.
   438  4.37  0.  0.
   439  4.38  0.  0.
   440  4.39  0.  0.
   441  4.40  0.  0.
   442  4.41  0.  0.
   443  4.42  0.  0.
   444  4.43  0.  0.
   445  4.44  0.  0.
   446  4.45  0.  0.
   447  4.46  0.  0.
   448  4.47  0.  0.
   449  4.48  0.  0.
   450  4.49  0.  0.
   451  4.50  0.  0.
   452  4.51  0.  0.
   453  4.52  0.  0.
   454  4.53  0.  0.
   455  4.54  0.  0.
   456  4.55  0.  0.
   457  4.56  0.  0.
   458  4.57  0.  0.
   459  4.58  0.  0.
   460  4.59  0.  0.
   461  4.60  0.  0.
   462  4.61  0.  0.
   463  4.62  0.  0.
   464  4.63  0.  0.
   465  4.64  0.  0.
   466  4.65  0.  0.
   467  4.66  0.  0.
   468  4.67  0.  0.
   469  4.68  0.  0.
   470  4.69  0.  0.
   471  4.70  0.  0.
   472  4.71  0.  0.
   473  4.72  0.  0.
   474  4.73  0.  0.
   475  4.74  0.  0.
   476  4.75  0.  0.
   477  4.76  0.  0.
   478  4.77  0.  0.
   479  4.78  0.  0.
   480  4.79  0.  0.
   481  4.80  0.  0.
   482  4.81  0.  0.
   483  4.82  0.  0.
   484  4.83  0.  0.
   485  4.84  0.  0.
   486  4.85  0.  0.
   487  4.86  0.  0.
   488  4.87  0.  0.
   489  4.88  0.  0.
   490  4.89  0.  0.
   491  4.90  0.  0.
   492  4.91  0.  0.
   493  4.92  0.  0.
   494  4.93  0.  0.
   495  4.94  0.  0.
   496  4.95  0.  0.
   497  4.96  0.  0.
   498  4.97  0.  0.
   499  4.98  0.  0.
   500  4.99  0.  0.
   501  5.00  0.  0.
   502  5.01  0.  0.
   503  5.02  0.  0.
   504  5.03  0.  0.
   505  5.04  0.  0.
   506  5.05  0.  0.
   507  5.06  0.  0.
   508  5.07  0.  0.
   509  5.08  0.  0.
   510  5.09  0.  0.
   511  5.10  0.  0.
   512  5.11  0.  0.
   513  5.12  0.  0.
   514  5.13  0.  0.
   515  5.14  0.  0.
   516  5.15  0.  0.
   517  5.16  0.  0.
   518  5.17  0.  0.
   519  5.18  0.  0.
   520  5.19  0.  0.
   521  5.20  0.  0.
   522  5.21  0.  0.
   523  5.22  0.  0.
   524  5.23  0.  0.
   525  5.24  0.  0.
   526  5.25  0.  0.
   527  5.26  0.  0.
   528  5.27  0.  0.
   529  5.28  0.  0.
   530  5.29  0.  0.
   531  5.30  0.  0.
   532  5.31  0.  0.
   533  5.32  0.  0.
   534  5.33  0.  0.
   535  5.34  0.  0.
   536  5.35  0.  0.
   537  5.36  0.  0.
   538  5.37  0.  0.
   539  5.38  0.  0.
   540  5.39  0.  0.
   541  5.40  0.  0.
   542  5.41  0.  0.
   543  5.42  0.  0.
   544  5.43  0.  0.
   545  5.44  0.  0.
   546  5.45  0.  0.
   547  5.46  0.  0.
   548  5.47  0.  0.
   549  5.48  0.  0.
   550  5.49  0.  0.
   551  5.50  0.  0.
   552  5.51  0.  0.
   553  5.52  0.  0.
   554  5.53  0.  0.
   555  5.54  0.  0.
   556  5.55  0.  0.
   557  5.56  0.  0.
   558  5.57  0.  0.
   559  5.58  0.  0.
   560  5.59  0.  0.
   561  5.60  0.  0.
   562  5.61  0.  0.
   563  5.62  0.  0.
   564  5.63  0.  0.
   565  5.64  0.  0.
   566  5.65  0.  0.
   567  5.66  0.  0.
   568  5.67  0.  0.
   569  5.68  0.  0.
   570  5.69  0.  0.
   571  5.70  0.  0.
   572  5.71  0.  0.
   573  5.72  0.  0.
   574  5.73  0.  0.
   575  5.74  0.  0.
   576  5.75  0.  0.
   577  5.76  0.  0.
   578  5.77  0.  0.
   579  5.78  0.  0.
   580  5.79  0.  0.
   581  5.80  0.  0.
   582  5.81  0.  0.
   583  5.82  0.  0.
   584  5.83  0.  0.
   585  5.84  0.  0.
   586  5.85  0.  0.
   587  5.86  0.  0.
   588  5.87  0.  0.
   589  5.88  0.  0.
   590  5.89  0.  0.
   591  5.90  0.  0.
   592  5.91  0.  0.
   593  5.92  0.  0.
   594  5.93  0.  0.
   595  5.94  0.  0.
   596  5.95  0.  0.
   597  5.96  0.  0.
   598  5.97  0.  0.
   599  5.98  0.  0.
   600  5.99  0.  0.
   1                         2.2427663929876E+00 -2.5126282441919E-01
     1  0.0000000000000E+00  1.7533990925855E-10  3.7953951093073E-10
     2  1.0000000000000E-02  1.4587338708587E-03  1.0957437701744E-03
     3  2.0000000000000E-02  5.8294271446502E-03  4.3759136295853E-03
     4  3.0000000000000E-02  1.3095576346488E-02  9.8193634928790E-03
     5  4.0000000000000E-02  2.3229747398834E-02  1.7390977245160E-02
     6  5.0000000000000E-02  3.6193682874531E-02  2.7041859087507E-02
     7  6.0000000000000E-02  5.1938451516762E-02  3.8709598634119E-02
     8  7.0000000000000E-02  7.0404639395146E-02  5.2318609382029E-02
     9  8.0000000000000E-02  9.1522581891798E-02  6.7780538794765E-02
    10  9.0000000000000E-02  1.1521263553968E-01  8.4994747867457E-02
    11  1.0000000000000E-01  1.4138548856816E-01  1.0384885768111E-01
    12  1.1000000000000E-01  1.6994250884896E-01  1.2421936010562E-01
    13  1.2000000000000E-01  2.0077612777927E-01  1.4597228947758E-01
    14  1.3000000000000E-01  2.3377025848973E-01  1.6896395176337E-01
    15  1.4000000000000E-01  2.6880074662238E-01  1.9304170741923E-01
    16  1.5000000000000E-01  3.0573585179006E-01  2.1804480388192E-01
    17  1.6000000000000E-01  3.4443675770228E-01  2.4380525336656E-01
    18  1.7000000000000E-01  3.8475810882680E-01  2.7014875141359E-01
    19  1.8000000000000E-01  4.2654857134841E-01  2.9689563141585E-01
    20  1.9000000000000E-01  4.6965141609003E-01  3.2386185017138E-01
    21  2.0000000000000E-01  5.1390512097436E-01  3.5085999934647E-01
    22  2.1000000000000E-01  5.5914399052883E-01  3.7770033760092E-01
    23  2.2000000000000E-01  6.0519878987219E-01  4.0419183801998E-01
    24  2.3000000000000E-01  6.5189739056782E-01  4.3014324541972E-01
    25  2.4000000000000E-01  6.9906542568756E-01  4.5536413804135E-01
    26  2.5000000000000E-01  7.4652695139997E-01  4.7966598812773E-01
    27  2.6000000000000E-01  7.9410511237932E-01  5.0286321588208E-01
    28  2.7000000000000E-01  8.4162280832563E-01  5.2477423134188E-01
    29  2.8000000000000E-01  8.8890335889177E-01  5.4522245876494E-01
    30  2.9000000000000E-01  9.3577116433194E-01  5.6403733821285E-01
    31  3.0000000000000E-01  9.8205235921470E-01  5.8105529913571E-01
    32  3.1000000000000E-01  1.0275754565851E+00  5.9612070090414E-01
    33  3.2000000000000E-01  1.0721719800126E+00  6.0908673540470E-01
    34  3.3000000000000E-01  1.1156770810240E+00  6.1981628700800E-01
    35  3.4000000000000E-01  1.1579301394961E+00  6.2818274543638E-01
    36  3.5000000000000E-01  1.1987753446642E+00  6.3407076729761E-01
    37  3.6000000000000E-01  1.2380622544993E+00  6.3737698231234E-01
    38  3.7000000000000E-01  1.2756463313079E+00  6.3801064054289E-01
    39  3.8000000000000E-01  1.3113894515209E+00  6.3589419723032E-01
    40  3.9000000000000E-01  1.3451603877593E+00  6.3096383216175E-01
    41  4.0000000000000E-01  1.3768352613907E+00  6.2316990081988E-01
    42  4.1000000000000E-01  1.4062979639268E+00  6.1247731491063E-01
    43  4.2000000000000E-01  1.4334405457528E+00  5.9886585021887E-01
    44  4.3000000000000E-01  1.4581635708264E+00  5.8233038010696E-01
    45  4.4000000000000E-01  1.4803764361373E+00  5.6288103334236E-01
    46  4.5000000000000E-01  1.4999976548727E+00  5.4054327531829E-01
    47  4.6000000000000E-01  1.5169551023947E+00  5.1535791211257E-01
    48  4.7000000000000E-01  1.5311862242996E+00  4.8738101721289E-01
    49  4.8000000000000E-01  1.5426382059902E+00  4.5668378111978E-01
    50  4.9000000000000E-01  1.5512681033618E+00  4.2335228441933E-01
    51  5.0000000000000E-01  1.5570429343666E+00  3.8748719529442E-01
    52  5.1000000000000E-01  1.5599397313879E+00  3.4920339281492E-01
    53  5.2000000000000E-01  1.5599455545199E+00  3.0862951770958E-01
    54  5.3000000000000E-01  1.5570574660142E+00  2.6590745267734E-01
    55  5.4000000000000E-01  1.5512824663118E+00  2.2119173463782E-01
    56  5.5000000000000E-01  1.5426373922397E+00  1.7464890165088E-01
    57  5.6000000000000E-01  1.5311487781033E+00  1.2645677755103E-01
    58  5.7000000000000E-01  1.5168526805557E+00  7.6803697641488E-02
    59  5.8000000000000E-01  1.4997944682688E+00  2.5887679076228E-02
    60  5.9000000000000E-01  1.4800285775687E+00 -2.6084460178410E-02
    61  6.0000000000000E-01  1.4576182353306E+00 -7.8898029666026E-02
    62  6.1000000000000E-01  1.4326351505535E+00 -1.3233143768632E-01
    63  6.2000000000000E-01  1.4051591761502E+00 -1.8615720090264E-01
    64  6.3000000000000E-01  1.3752779426020E+00 -2.4014298756899E-01