Ti    ONCVPSP-4.0.1  r_core=   2.80924   2.22468   1.98567
     22.0000     12.0000      220318    zatom,zion,pspd
     8      11   2     4   600     0    pspcod,pspxc,lmax,lloc,mmax,r2well
  5.99000000  2.50000000  0.00000000    rchrg fchrg qchrg
     2     2     2     0     0    nproj
     1     1           extension_switch
   0                         2.2869808452955E+00 -2.2916364007589E-01
     1  0.0000000000000E+00 -3.9819259001206E-12 -1.2647854985559E-11
     2  1.0000000000000E-02  5.0320472328831E-02  2.0389828679492E-02
     3  2.0000000000000E-02  1.0056984116944E-01  4.0728120211953E-02
     4  3.0000000000000E-02  1.5067713650820E-01  6.0963522873133E-02
     5  4.0000000000000E-02  2.0057165495342E-01  8.1045055039044E-02
     6  5.0000000000000E-02  2.5018309222931E-01  1.0092228837605E-01
     7  6.0000000000000E-02  2.9944167469237E-01  1.2054552880788E-01
     8  7.0000000000000E-02  3.4827828954885E-01  1.3986599453335E-01
     9  8.0000000000000E-02  3.9662461345637E-01  1.5883599038145E-01
    10  9.0000000000000E-02  4.4441323919717E-01  1.7740907780597E-01
    11  1.0000000000000E-01  4.9157780011684E-01  1.9554023984075E-01
    12  1.1000000000000E-01  5.3805309202901E-01  2.1318604035836E-01
    13  1.2000000000000E-01  5.8377519229427E-01  2.3030477699935E-01
    14  1.3000000000000E-01  6.2868157579036E-01  2.4685662716681E-01
    15  1.4000000000000E-01  6.7271122749998E-01  2.6280378651055E-01
    16  1.5000000000000E-01  7.1580475145310E-01  2.7811059935780E-01
    17  1.6000000000000E-01  7.5790447577172E-01  2.9274368058215E-01
    18  1.7000000000000E-01  7.9895455357686E-01  3.0667202843933E-01
    19  1.8000000000000E-01  8.3890105953015E-01  3.1986712793748E-01
    20  1.9000000000000E-01  8.7769208179590E-01  3.3230304435079E-01
    21  2.0000000000000E-01  9.1527780922298E-01  3.4395650652764E-01
    22  2.1000000000000E-01  9.5161061356077E-01  3.5480697968911E-01
    23  2.2000000000000E-01  9.8664512653812E-01  3.6483672745895E-01
    24  2.3000000000000E-01  1.0203383116499E+00  3.7403086291309E-01
    25  2.4000000000000E-01  1.0526495305117E+00  3.8237738848425E-01
    26  2.5000000000000E-01  1.0835406036587E+00  3.8986722460608E-01
    27  2.6000000000000E-01  1.1129758656835E+00  3.9649422702962E-01
    28  2.7000000000000E-01  1.1409222146211E+00  4.0225519279485E-01
    29  2.8000000000000E-01  1.1673491555093E+00  4.0714985488899E-01
    30  2.9000000000000E-01  1.1922288380690E+00  4.1118086567265E-01
    31  3.0000000000000E-01  1.2155360884652E+00  4.1435376920391E-01
    32  3.1000000000000E-01  1.2372484351272E+00  4.1667696263850E-01
    33  3.2000000000000E-01  1.2573461286255E+00  4.1816164693205E-01
    34  3.3000000000000E-01  1.2758121556161E+00  4.1882176711652E-01
    35  3.4000000000000E-01  1.2926322468841E+00  4.1867394246848E-01
    36  3.5000000000000E-01  1.3077948795320E+00  4.1773738693040E-01
    37  3.6000000000000E-01  1.3212912733757E+00  4.1603382018832E-01
    38  3.7000000000000E-01  1.3331153816277E+00  4.1358736984944E-01
    39  3.8000000000000E-01  1.3432638759609E+00  4.1042446520121E-01
    40  3.9000000000000E-01  1.3517361260641E+00  4.0657372306952E-01
    41  4.0000000000000E-01  1.3585341738120E+00  4.0206582632653E-01
    42  4.1000000000000E-01  1.3636627021883E+00  3.9693339563005E-01
    43  4.2000000000000E-01  1.3671289991145E+00  3.9121085500358E-01
    44  4.3000000000000E-01  1.3689429163471E+00  3.8493429189182E-01
    45  4.4000000000000E-01  1.3691168236208E+00  3.7814131234788E-01
    46  4.5000000000000E-01  1.3676655582244E+00  3.7087089202719E-01
    47  4.6000000000000E-01  1.3646063702080E+00  3.6316322367896E-01
    48  4.7000000000000E-01  1.3599588634284E+00  3.5505956183720E-01
    49  4.8000000000000E-01  1.3537449326495E+00  3.4660206542271E-01
    50  4.9000000000000E-01  1.3459886969212E+00  3.3783363897181E-01
    51  5.0000000000000E-01  1.3367164294677E+00  3.2879777320911E-01
    52  5.1000000000000E-01  1.3259564843231E+00  3.1953838567954E-01
    53  5.2000000000000E-01  1.3137392199541E+00  3.1009966214892E-01
    54  5.3000000000000E-01  1.3000969201175E+00  3.0052589947275E-01
    55  5.4000000000000E-01  1.2850637121999E+00  2.9086135062017E-01
    56  5.5000000000000E-01  1.2686754832914E+00  2.8115007252328E-01
    57  5.6000000000000E-01  1.2509697942438E+00  2.7143577740213E-01
    58  5.7000000000000E-01  1.2319857919672E+00  2.6176168819218E-01
    59  5.8000000000000E-01  1.2117641202131E+00  2.5217039867485E-01
    60  5.9000000000000E-01  1.1903468290965E+00  2.4270373888139E-01
    61  6.0000000000000E-01  1.1677772835996E+00  2.3340264630820E-01
    62  6.1000000000000E-01  1.1441000713027E+00  2.2430704344589E-01
    63  6.2000000000000E-01  1.1193609095786E+00  2.1545572208632E-01
    64  6.3000000000000E-01  1.0936065524835E+00  2.0688623483117E-01
    65  6.4000000000000E-01  1.0668846975707E+00  1.9863479418298E-01
    66  6.5000000000000E-01  1.0392438928464E+00  1.9073617955444E-01
    67  6.6000000000000E-01  1.0107334440785E+00  1.8322365248563E-01
    68  6.7000000000000E-01  9.8140332266317E-01  1.7612888031039E-01
    69  6.8000000000000E-01  9.5130407424150E-01  1.6948186846386E-01
    70  6.9000000000000E-01  9.2048672825177E-01  1.6331090157332E-01
    71  7.0000000000000E-01  8.8900270859174E-01  1.5764249342281E-01
    72  7.1000000000000E-01  8.5690374555474E-01  1.5250134583156E-01
    73  7.2000000000000E-01  8.2424178919266E-01  1.4791031643421E-01
    74  7.3000000000000E-01  7.9106892424762E-01  1.4389039530002E-01
    75  7.4000000000000E-01  7.5743728678284E-01  1.4046069027749E-01
    76  7.5000000000000E-01  7.2339898263116E-01  1.3763842090112E-01
    77  7.6000000000000E-01  6.8900600776841E-01  1.3543892064810E-01
    78  7.7000000000000E-01  6.5431017070656E-01  1.3387564728602E-01
    79  7.8000000000000E-01  6.1936301699016E-01  1.3296020100630E-01
    80  7.9000000000000E-01  5.8421575586770E-01  1.3270234999562E-01
    81  8.0000000000000E-01  5.4891918919805E-01  1.3311006305543E-01
    82  8.1000000000000E-01  5.1352364264080E-01  1.3418954884140E-01
    83  8.2000000000000E-01  4.7807889916848E-01  1.3594530125905E-01
    84  8.3000000000000E-01  4.4263413492772E-01  1.3838015051832E-01
    85  8.4000000000000E-01  4.0723785746649E-01  1.4149531932101E-01
    86  8.5000000000000E-01  3.7193784633451E-01  1.4529048362845E-01
    87  8.6000000000000E-01  3.3678109605486E-01  1.4976383743479E-01
    88  8.7000000000000E-01  3.0181376145616E-01  1.5491216095241E-01
    89  8.8000000000000E-01  2.6708110534647E-01  1.6073089160160E-01
    90  8.9000000000000E-01  2.3262744850298E-01  1.6721419718620E-01
    91  9.0000000000000E-01  1.9849612194451E-01  1.7435505063063E-01
    92  9.1000000000000E-01  1.6472942144830E-01  1.8214530565162E-01
    93  9.2000000000000E-01  1.3136856426696E-01  1.9057577274068E-01
    94  9.3000000000000E-01  9.8453647997489E-02  1.9963629483957E-01
    95  9.4000000000000E-01  6.6023611550260E-02  2.0931582210255E-01
    96  9.5000000000000E-01  3.4116198163317E-02  2.1960248515411E-01
    97  9.6000000000000E-01  2.7679204053349E-03  2.3048366627089E-01
    98  9.7000000000000E-01 -2.7985972890698E-02  2.4194606793981E-01
    99  9.8000000000000E-01 -5.8111527821243E-02  2.5397577827253E-01
   100  9.9000000000000E-01 -8.7576114791208E-02  2.6655833278786E-01
   101  1.0000000000000E+00 -1.1634845613474E-01  2.7967877210918E-01
   102  1.0100000000000E+00 -1.4439865203237E-01  2.9332169516272E-01
   103  1.0200000000000E+00 -1.7169820477643E-01  3.0747130750492E-01
   104  1.0300000000000E+00 -1.9822004143315E-01  3.2211146445214E-01
   105  1.0400000000000E+00 -2.2393853494591E-01  3.3722570873406E-01
   106  1.0500000000000E+00 -2.4882952371947E-01  3.5279730244281E-01
   107  1.0600000000000E+00 -2.7287032971956E-01  3.6880925310208E-01
   108  1.0700000000000E+00 -2.9603977511684E-01  3.8524433373564E-01
   109  1.0800000000000E+00 -3.1831819749780E-01  4.0208509687011E-01
   110  1.0900000000000E+00 -3.3968746365869E-01  4.1931388246444E-01
   111  1.1000000000000E+00 -3.6013098199168E-01  4.3691281981624E-01
   112  1.1100000000000E+00 -3.7963371346541E-01  4.5486382355377E-01
   113  1.1200000000000E+00 -3.9818218119453E-01  4.7314858388028E-01
   114  1.1300000000000E+00 -4.1576447858570E-01  4.9174855129589E-01
   115  1.1400000000000E+00 -4.3237027603972E-01  5.1064491607908E-01
   116  1.1500000000000E+00 -4.4799082618235E-01  5.2981858286592E-01
   117  1.1600000000000E+00 -4.6261896758869E-01  5.4925014071975E-01
   118  1.1700000000000E+00 -4.7624912695913E-01  5.6891982913648E-01
   119  1.1800000000000E+00 -4.8887731969784E-01  5.8880750048064E-01
   120  1.1900000000000E+00 -5.0050114883814E-01  6.0889257939537E-01
   121  1.2000000000000E+00 -5.1111980225308E-01  6.2915401977329E-01
   122  1.2100000000000E+00 -5.2073404808374E-01  6.4957025991661E-01
   123  1.2200000000000E+00 -5.2934622831254E-01  6.7011917655234E-01
   124  1.2300000000000E+00 -5.3696025040452E-01  6.9077803840127E-01
   125  1.2400000000000E+00 -5.4358157693515E-01  7.1152346002899E-01
   126  1.2500000000000E+00 -5.4921721312067E-01  7.3233135673133E-01
   127  1.2600000000000E+00 -5.5387569216383E-01  7.5317690122655E-01
   128  1.2700000000000E+00 -5.5756705832678E-01  7.7403448294132E-01
   129  1.2800000000000E+00 -5.6030284764172E-01  7.9487767068715E-01
   130  1.2900000000000E+00 -5.6209606617008E-01  8.1567917952840E-01
   131  1.3000000000000E+00 -5.6296116572216E-01  8.3641084264200E-01
   132  1.3100000000000E+00 -5.6291401695061E-01  8.5704358896243E-01
   133  1.3200000000000E+00 -5.6197187973450E-01  8.7754742739402E-01
   134  1.3300000000000E+00 -5.6015337077407E-01  8.9789143835482E-01
   135  1.3400000000000E+00 -5.5747842832126E-01  9.1804377339394E-01
   136  1.3500000000000E+00 -5.5396827397666E-01  9.3797166359582E-01
   137  1.3600000000000E+00 -5.4964537149006E-01  9.5764143745174E-01
   138  1.3700000000000E+00 -5.4453338250957E-01  9.7701854884047E-01
   139  1.3800000000000E+00 -5.3865711923227E-01  9.9606761571625E-01
   140  1.3900000000000E+00 -5.3204249391886E-01  1.0147524700548E+00
   141  1.4000000000000E+00 -5.2471646524480E-01  1.0330362195547E+00
   142  1.4100000000000E+00 -5.1670698147103E-01  1.0508813215367E+00
   143  1.4200000000000E+00 -5.0804292042907E-01  1.0682496694192E+00
   144  1.4300000000000E+00 -4.9875402632732E-01  1.0851026920892E+00
   145  1.4400000000000E+00 -4.8887084339817E-01  1.1014014664169E+00
   146  1.4500000000000E+00 -4.7842464641864E-01  1.1171068430930E+00
   147  1.4600000000000E+00 -4.6744736815094E-01  1.1321795858967E+00
   148  1.4700000000000E+00 -4.5597152376357E-01  1.1465805244278E+00
   149  1.4800000000000E+00 -4.4403013230747E-01  1.1602707202592E+00
   150  1.4900000000000E+00 -4.3165663533633E-01  1.1732116463908E+00
   151  1.5000000000000E+00 -4.1888481277495E-01  1.1853653798092E+00
   152  1.5100000000000E+00 -4.0574869615361E-01  1.1966948068784E+00
   153  1.5200000000000E+00 -3.9228247934108E-01  1.2071638412114E+00
   154  1.5300000000000E+00 -3.7852042692324E-01  1.2167376535971E+00
   155  1.5400000000000E+00 -3.6449678038790E-01  1.2253829134804E+00
   156  1.5500000000000E+00 -3.5024566229035E-01  1.2330680414236E+00
   157  1.5600000000000E+00 -3.3580097858678E-01  1.2397634719051E+00
   158  1.5700000000000E+00 -3.2119631933570E-01  1.2454419257452E+00
   159  1.5800000000000E+00 -3.0646485797896E-01  1.2500786913836E+00
   160  1.5900000000000E+00 -2.9163924942524E-01  1.2536519141756E+00
   161  1.6000000000000E+00 -2.7675152716907E-01  1.2561428928136E+00
   162  1.6100000000000E+00 -2.6183299968076E-01  1.2575363820239E+00
   163  1.6200000000000E+00 -2.4691414634988E-01  1.2578209001253E+00
   164  1.6300000000000E+00 -2.3202451319954E-01  1.2569890410872E+00
   165  1.6400000000000E+00 -2.1719262452932E-01  1.2550375893584E+00
   166  1.6500000000000E+00 -2.0244606083650E-01  1.2519656521023E+00
   167  1.6600000000000E+00 -1.8781157535600E-01  1.2477727347396E+00
   168  1.6700000000000E+00 -1.7331507707910E-01  1.2424587294584E+00
   169  1.6800000000000E+00 -1.5898160003243E-01  1.2360240890168E+00
   170  1.6900000000000E+00 -1.4483527292264E-01  1.2284699982521E+00
   171  1.7000000000000E+00 -1.3089928928887E-01  1.2197985429925E+00
   172  1.7100000000000E+00 -1.1719587846508E-01  1.2100128743725E+00
   173  1.7200000000000E+00 -1.0374627754774E-01  1.1991173678182E+00
   174  1.7300000000000E+00 -9.0570704579256E-02  1.1871177757481E+00
   175  1.7400000000000E+00 -7.7688333161328E-02  1.1740213729586E+00
   176  1.7500000000000E+00 -6.5117268691591E-02  1.1598370938513E+00
   177  1.7600000000000E+00 -5.2874526423334E-02  1.1445756605456E+00
   178  1.7700000000000E+00 -4.0976011529567E-02  1.1282497010647E+00
   179  1.7800000000000E+00 -2.9436501341099E-02  1.1108738568418E+00
   180  1.7900000000000E+00 -1.8269629925748E-02  1.0924648787662E+00
   181  1.8000000000000E+00 -7.4878751561567E-03  1.0730417111194E+00
   182  1.8100000000000E+00  2.8974516025268E-03  1.0526255628390E+00
   183  1.8200000000000E+00  1.2876213060403E-02  1.0312399655493E+00
   184  1.8300000000000E+00  2.2439450724278E-02  1.0089108179369E+00
   185  1.8400000000000E+00  3.1579386685617E-02  9.8566641611687E-01
   186  1.8500000000000E+00  4.0289422405857E-02  9.6153746972106E-01
   187  1.8600000000000E+00  4.8564134450795E-02  9.3655710355317E-01
   188  1.8700000000000E+00  5.6399267138607E-02  9.1076084469720E-01
   189  1.8800000000000E+00  6.3791722093954E-02  8.8418659512945E-01
   190  1.8900000000000E+00  7.0739544718310E-02  8.5687458996049E-01
   191  1.9000000000000E+00  7.7241907602141E-02  8.2886734149618E-01
   192  1.9100000000000E+00  8.3299090928748E-02  8.0020956943459E-01
   193  1.9200000000000E+00  8.8912459943917E-02  7.7094811764353E-01
   194  1.9300000000000E+00  9.4084439574709E-02  7.4113185797793E-01
   195  1.9400000000000E+00  9.8818486305839E-02  7.1081158173226E-01
   196  1.9500000000000E+00  1.0311905744013E-01  6.8003987940795E-01
   197  1.9600000000000E+00  1.0699157787924E-01  6.4887100950091E-01
   198  1.9700000000000E+00  1.1044240458600E-01  6.1736075715607E-01
   199  1.9800000000000E+00  1.1347878888858E-01  5.8556628349130E-01
   200  1.9900000000000E+00  1.1610883680631E-01  5.5354596650304E-01
   201  2.0000000000000E+00  1.1834146758710E-01  5.2135923450946E-01
   202  2.0100000000000E+00  1.2018637064376E-01  4.8906639304844E-01
   203  2.0200000000000E+00  1.2165396108253E-01  4.5672844617816E-01
   204  2.0300000000000E+00  1.2275533402679E-01  4.2440691318134E-01
   205  2.0400000000000E+00  1.2350221791905E-01  3.9216364154147E-01
   206  2.0500000000000E+00  1.2390692700190E-01  3.6006061717523E-01
   207  2.0600000000000E+00  1.2398231315371E-01  3.2815977275205E-01
   208  2.0700000000000E+00  1.2374171725283E-01  2.9652279492869E-01
   209  2.0800000000000E+00  1.2319892023713E-01  2.6521093130003E-01
   210  2.0900000000000E+00  1.2236809401260E-01  2.3428479780231E-01
   211  2.1000000000000E+00  1.2126375234432E-01  2.0380418719526E-01
   212  2.1100000000000E+00  1.1990070185605E-01  1.7382787923594E-01
   213  2.1200000000000E+00  1.1829399325413E-01  1.4441345311215E-01
   214  2.1300000000000E+00  1.1645887287284E-01  1.1561710261748E-01
   215  2.1400000000000E+00  1.1441073461893E-01  8.7493454456188E-02
   216  2.1500000000000E+00  1.1216507240218E-01  6.0095390147848E-02
   217  2.1600000000000E+00  1.0973743310579E-01  3.3473871825695E-02
   218  2.1700000000000E+00  1.0714337015842E-01  7.6777722920058E-03
   219  2.1800000000000E+00  1.0439839776386E-01 -1.7246290321769E-02
   220  2.1900000000000E+00  1.0151794582953E-01 -4.1254113018430E-02
   221  2.2000000000000E+00  9.8517315647592E-02 -6.4304063159664E-02
   222  2.2100000000000E+00  9.5411636384166E-02 -8.6357228075811E-02
   223  2.2200000000000E+00  9.2215822434745E-02 -1.0737755866745E-01
   224  2.2300000000000E+00  8.8944531706576E-02 -1.2733200659160E-01
   225  2.2400000000000E+00  8.5612124907962E-02 -1.4619065451876E-01
   226  2.2500000000000E+00  8.2232625935356E-02 -1.6392683889755E-01
   227  2.2600000000000E+00  7.8819683457987E-02 -1.8051726462784E-01
   228  2.2700000000000E+00  7.5386533807778E-02 -1.9594211101562E-01
   229  2.2800000000000E+00  7.1945965312543E-02 -2.1018512822915E-01
   230  2.2900000000000E+00  6.8510284205943E-02 -2.2323372353205E-01
   231  2.3000000000000E+00  6.5091282266019E-02 -2.3507903648928E-01
   232  2.3100000000000E+00  6.1700206352193E-02 -2.4571600226327E-01
   233  2.3200000000000E+00  5.8347730000171E-02 -2.5514340221089E-01
   234  2.3300000000000E+00  5.5043927251728E-02 -2.6336390091937E-01
   235  2.3400000000000E+00  5.1798248893542E-02 -2.7038406886437E-01
   236  2.3500000000000E+00  4.8619501284993E-02 -2.7621438985939E-01
   237  2.3600000000000E+00  4.5515827933106E-02 -2.8086925262460E-01
   238  2.3700000000000E+00  4.2494693973350E-02 -2.8436692581295E-01
   239  2.3800000000000E+00  3.9562873704306E-02 -2.8672951591052E-01
   240  2.3900000000000E+00  3.6726441309666E-02 -2.8798290752765E-01
   241  2.4000000000000E+00  3.3990764869552E-02 -2.8815668578510E-01
   242  2.4100000000000E+00  3.1360503742252E-02 -2.8728404062009E-01
   243  2.4200000000000E+00  2.8839609400334E-02 -2.8540165283077E-01
   244  2.4300000000000E+00  2.6431329738663E-02 -2.8254956204660E-01
   245  2.4400000000000E+00  2.4138216862963E-02 -2.7877101685665E-01
   246  2.4500000000000E+00  2.1962138355841E-02 -2.7411230739412E-01
   247  2.4600000000000E+00  1.9904291956502E-02 -2.6862258099936E-01
   248  2.4700000000000E+00  1.7965223575643E-02 -2.6235364165322E-01
   249  2.4800000000000E+00  1.6144848547998E-02 -2.5535973397208E-01
   250  2.4900000000000E+00  1.4442475989995E-02 -2.4769731273278E-01
   251  2.5000000000000E+00  1.2856836096284E-02 -2.3942479906058E-01
   252  2.5100000000000E+00  1.1386110195046E-02 -2.3060232448247E-01
   253  2.5200000000000E+00  1.0027963365408E-02 -2.2129146412113E-01
   254  2.5300000000000E+00  8.7795793836704E-03 -2.1155496048045E-01
   255  2.5400000000000E+00  7.6376977601188E-03 -2.0145643929530E-01
   256  2.5500000000000E+00  6.5986526167957E-03 -1.9106011896129E-01
   257  2.5600000000000E+00  5.6584131316431E-03 -1.8043051517083E-01
   258  2.5700000000000E+00  4.8126252743716E-03 -1.6963214238120E-01
   259  2.5800000000000E+00  4.0566545498485E-03 -1.5872921376940E-01
   260  2.5900000000000E+00  3.3856294612588E-03 -1.4778534132864E-01
   261  2.6000000000000E+00  2.7944854062493E-03 -1.3686323775740E-01
   262  2.6100000000000E+00  2.2780087089038E-03 -1.2602442182218E-01
   263  2.6200000000000E+00  1.8308804969812E-03 -1.1532892772228E-01
   264  2.6300000000000E+00  1.4477202035926E-03 -1.0483502734216E-01
   265  2.6400000000000E+00  1.1231282476990E-03 -9.4598950005303E-02
   266  2.6500000000000E+00  8.5172784669893E-04 -8.4674605661169E-02
   267  2.6600000000000E+00  6.2820542970627E-04 -7.5113361488707E-02
   268  2.6700000000000E+00  4.4735046072978E-04 -6.5963857221891E-02
   269  2.6800000000000E+00  3.0409811911922E-04 -5.7272196457219E-02
   270  2.6900000000000E+00  1.9355869646202E-04 -4.9081092953758E-02
   271  2.7000000000000E+00  1.1104464032815E-04 -4.1429050141742E-02
   272  2.7100000000000E+00  5.2106637039012E-05 -3.4350965499608E-02
   273  2.7200000000000E+00  1.2562777693885E-05 -2.7878084983235E-02
   274  2.7300000000000E+00 -1.1475940865471E-05 -2.2037733133199E-02
   275  2.7400000000000E+00 -2.3582302851363E-05 -1.6853228852935E-02
   276  2.7500000000000E+00 -2.6992681839011E-05 -1.2343768763824E-02
   277  2.7600000000000E+00 -2.4591264124115E-05 -8.5246237182750E-03
   278  2.7700000000000E+00 -1.8899572222491E-05 -5.4077551990128E-03
   279  2.7800000000000E+00 -1.1980205571423E-05 -2.9856920308802E-03
   280  2.7900000000000E+00 -5.7100816188533E-06 -1.2844979436579E-03
   281  2.8000000000000E+00 -1.6364042042875E-06 -3.3847068110318E-04
   282  2.8100000000000E+00  6.4483857109860E-08  1.1669497915942E-05
   283  2.8200000000000E+00  1.9342442528524E-07  3.5877846683761E-05
   284  2.83 -0. -0.
   285  2.84 -0. -0.
   286  2.85  0.  0.
   287  2.86  0.  0.
   288  2.87 -0. -0.
   289  2.88  0.  0.
   290  2.89  0.  0.
   291  2.90  0.  0.
   292  2.91  0.  0.
   293  2.92  0.  0.
   294  2.93  0.  0.
   295  2.94  0.  0.
   296  2.95  0.  0.
   297  2.96  0.  0.
   298  2.97  0.  0.
   299  2.98  0.  0.
   300  2.99  0.  0.
   301  3.00  0.  0.
   302  3.01  0.  0.
   303  3.02  0.  0.
   304  3.03  0.  0.
   305  3.04  0.  0.
   306  3.05  0.  0.
   307  3.06  0.  0.
   308  3.07  0.  0.
   309  3.08  0.  0.
   310  3.09  0.  0.
   311  3.10  0.  0.
   312  3.11  0.  0.
   313  3.12  0.  0.
   314  3.13  0.  0.
   315  3.14  0.  0.
   316  3.15  0.  0.
   317  3.16  0.  0.
   318  3.17  0.  0.
   319  3.18  0.  0.
   320  3.19  0.  0.
   321  3.20  0.  0.
   322  3.21  0.  0.
   323  3.22  0.  0.
   324  3.23  0.  0.
   325  3.24  0.  0.
   326  3.25  0.  0.
   327  3.26  0.  0.
   328  3.27  0.  0.
   329  3.28  0.  0.
   330  3.29  0.  0.
   331  3.30  0.  0.
   332  3.31  0.  0.
   333  3.32  0.  0.
   334  3.33  0.  0.
   335  3.34  0.  0.
   336  3.35  0.  0.
   337  3.36  0.  0.
   338  3.37  0.  0.
   339  3.38  0.  0.
   340  3.39  0.  0.
   341  3.40  0.  0.
   342  3.41  0.  0.
   343  3.42  0.  0.
   344  3.43  0.  0.
   345  3.44  0.  0.
   346  3.45  0.  0.
   347  3.46  0.  0.
   348  3.47  0.  0.
   349  3.48  0.  0.
   350  3.49  0.  0.
   351  3.50  0.  0.
   352  3.51  0.  0.
   353  3.52  0.  0.
   354  3.53  0.  0.
   355  3.54  0.  0.
   356  3.55  0.  0.
   357  3.56  0.  0.
   358  3.57  0.  0.
   359  3.58  0.  0.
   360  3.59  0.  0.
   361  3.60  0.  0.
   362  3.61  0.  0.
   363  3.62  0.  0.
   364  3.63  0.  0.
   365  3.64  0.  0.
   366  3.65  0.  0.
   367  3.66  0.  0.
   368  3.67  0.  0.
   369  3.68  0.  0.
   370  3.69  0.  0.
   371  3.70  0.  0.
   372  3.71  0.  0.
   373  3.72  0.  0.
   374  3.73  0.  0.
   375  3.74  0.  0.
   376  3.75  0.  0.
   377  3.76  0.  0.
   378  3.77  0.  0.
   379  3.78  0.  0.
   380  3.79  0.  0.
   381  3.80  0.  0.
   382  3.81  0.  0.
   383  3.82  0.  0.
   384  3.83  0.  0.
   385  3.84  0.  0.
   386  3.85  0.  0.
   387  3.86  0.  0.
   388  3.87  0.  0.
   389  3.88  0.  0.
   390  3.89  0.  0.
   391  3.90  0.  0.
   392  3.91  0.  0.
   393  3.92  0.  0.
   394  3.93  0.  0.
   395  3.94  0.  0.
   396  3.95  0.  0.
   397  3.96  0.  0.
   398  3.97  0.  0.
   399  3.98  0.  0.
   400  3.99  0.  0.
   401  4.00  0.  0.
   402  4.01  0.  0.
   403  4.02  0.  0.
   404  4.03  0.  0.
   405  4.04  0.  0.
   406  4.05  0.  0.
   407  4.06  0.  0.
   408  4.07  0.  0.
   409  4.08  0.  0.
   410  4.09  0.  0.
   411  4.10  0.  0.
   412  4.11  0.  0.
   413  4.12  0.  0.
   414  4.13  0.  0.
   415  4.14  0.  0.
   416  4.15  0.  0.
   417  4.16  0.  0.
   418  4.17  0.  0.
   419  4.18  0.  0.
   420  4.19  0.  0.
   421  4.20  0.  0.
   422  4.21  0.  0.
   423  4.22  0.  0.
   424  4.23  0.  0.
   425  4.24  0.  0.
   426  4.25  0.  0.
   427  4.26  0.  0.
   428  4.27  0.  0.
   429  4.28  0.  0.
   430  4.29  0.  0.
   431  4.30  0.  0.
   432  4.31  0.  0.
   433  4.32  0.  0.
   434  4.33  0.  0.
   435  4.34  0.  0.
   436  4.35  0.  0.
   437  4.36  0.  0.
   438  4.37  0.  0.
   439  4.38  0.  0.
   440  4.39  0.  0.
   441  4.40  0.  0.
   442  4.41  0.  0.
   443  4.42  0.  0.
   444  4.43  0.  0.
   445  4.44  0.  0.
   446  4.45  0.  0.
   447  4.46  0.  0.
   448  4.47  0.  0.
   449  4.48  0.  0.
   450  4.49  0.  0.
   451  4.50  0.  0.
   452  4.51  0.  0.
   453  4.52  0.  0.
   454  4.53  0.  0.
   455  4.54  0.  0.
   456  4.55  0.  0.
   457  4.56  0.  0.
   458  4.57  0.  0.
   459  4.58  0.  0.
   460  4.59  0.  0.
   461  4.60  0.  0.
   462  4.61  0.  0.
   463  4.62  0.  0.
   464  4.63  0.  0.
   465  4.64  0.  0.
   466  4.65  0.  0.
   467  4.66  0.  0.
   468  4.67  0.  0.
   469  4.68  0.  0.
   470  4.69  0.  0.
   471  4.70  0.  0.
   472  4.71  0.  0.
   473  4.72  0.  0.
   474  4.73  0.  0.
   475  4.74  0.  0.
   476  4.75  0.  0.
   477  4.76  0.  0.
   478  4.77  0.  0.
   479  4.78  0.  0.
   480  4.79  0.  0.
   481  4.80  0.  0.
   482  4.81  0.  0.
   483  4.82  0.  0.
   484  4.83  0.  0.
   485  4.84  0.  0.
   486  4.85  0.  0.
   487  4.86  0.  0.
   488  4.87  0.  0.
   489  4.88  0.  0.
   490  4.89  0.  0.
   491  4.90  0.  0.
   492  4.91  0.  0.
   493  4.92  0.  0.
   494  4.93  0.  0.
   495  4.94  0.  0.
   496  4.95  0.  0.
   497  4.96  0.  0.
   498  4.97  0.  0.
   499  4.98  0.  0.
   500  4.99  0.  0.
   501  5.00  0.  0.
   502  5.01  0.  0.
   503  5.02  0.  0.
   504  5.03  0.  0.
   505  5.04  0.  0.
   506  5.05  0.  0.
   507  5.06  0.  0.
   508  5.07  0.  0.
   509  5.08  0.  0.
   510  5.09  0.  0.
   511  5.10  0.  0.
   512  5.11  0.  0.
   513  5.12  0.  0.
   514  5.13  0.  0.
   515  5.14  0.  0.
   516  5.15  0.  0.
   517  5.16  0.  0.
   518  5.17  0.  0.
   519  5.18  0.  0.
   520  5.19  0.  0.
   521  5.20  0.  0.
   522  5.21  0.  0.
   523  5.22  0.  0.
   524  5.23  0.  0.
   525  5.24  0.  0.
   526  5.25  0.  0.
   527  5.26  0.  0.
   528  5.27  0.  0.
   529  5.28  0.  0.
   530  5.29  0.  0.
   531  5.30  0.  0.
   532  5.31  0.  0.
   533  5.32  0.  0.
   534  5.33  0.  0.
   535  5.34  0.  0.
   536  5.35  0.  0.
   537  5.36  0.  0.
   538  5.37  0.  0.
   539  5.38  0.  0.
   540  5.39  0.  0.
   541  5.40  0.  0.
   542  5.41  0.  0.
   543  5.42  0.  0.
   544  5.43  0.  0.
   545  5.44  0.  0.
   546  5.45  0.  0.
   547  5.46  0.  0.
   548  5.47  0.  0.
   549  5.48  0.  0.
   550  5.49  0.  0.
   551  5.50  0.  0.
   552  5.51  0.  0.
   553  5.52  0.  0.
   554  5.53  0.  0.
   555  5.54  0.  0.
   556  5.55  0.  0.
   557  5.56  0.  0.
   558  5.57  0.  0.
   559  5.58  0.  0.
   560  5.59  0.  0.
   561  5.60  0.  0.
   562  5.61  0.  0.
   563  5.62  0.  0.
   564  5.63  0.  0.
   565  5.64  0.  0.
   566  5.65  0.  0.
   567  5.66  0.  0.
   568  5.67  0.  0.
   569  5.68  0.  0.
   570  5.69  0.  0.
   571  5.70  0.  0.
   572  5.71  0.  0.
   573  5.72  0.  0.
   574  5.73  0.  0.
   575  5.74  0.  0.
   576  5.75  0.  0.
   577  5.76  0.  0.
   578  5.77  0.  0.
   579  5.78  0.  0.
   580  5.79  0.  0.
   581  5.80  0.  0.
   582  5.81  0.  0.
   583  5.82  0.  0.
   584  5.83  0.  0.
   585  5.84  0.  0.
   586  5.85  0.  0.
   587  5.86  0.  0.
   588  5.87  0.  0.
   589  5.88  0.  0.
   590  5.89  0.  0.
   591  5.90  0.  0.
   592  5.91  0.  0.
   593  5.92  0.  0.
   594  5.93  0.  0.
   595  5.94  0.  0.
   596  5.95  0.  0.
   597  5.96  0.  0.
   598  5.97  0.  0.
   599  5.98  0.  0.
   600  5.99  0.  0.
   1                        -1.1001003136646E+00 -2.1550586816917E-01
     1  0.0000000000000E+00 -6.1082292002190E-11  2.8132409596315E-10
     2  1.0000000000000E-02  3.7898140112588E-04  1.0212151336389E-04
     3  2.0000000000000E-02  1.5160006645507E-03  4.0637923369446E-04
     4  3.0000000000000E-02  3.4112788258124E-03  9.0647158822307E-04
     5  4.0000000000000E-02  6.0651704944640E-03  1.5919587610674E-03
     6  5.0000000000000E-02  9.4781432924658E-03  2.4483563772249E-03
     7  6.0000000000000E-02  1.3650749292959E-02  3.4572656165835E-03
     8  7.0000000000000E-02  1.8583588682447E-02  4.5965387247123E-03
     9  8.0000000000000E-02  2.4277265930487E-02  5.8404786058714E-03
    10  9.0000000000000E-02  3.0732338809829E-02  7.1600709146917E-03
    11  1.0000000000000E-01  3.7949260666556E-02  8.5232468043180E-03
    12  1.1000000000000E-01  4.5928316393287E-02  9.8951742481131E-03
    13  1.2000000000000E-01  5.4669552609015E-02  1.1238575625448E-02
    14  1.3000000000000E-01  6.4172702595846E-02  1.2514069056488E-02
    15  1.4000000000000E-01  7.4437106585884E-02  1.3680530783956E-02
    16  1.5000000000000E-01  8.5461628030032E-02  1.4695475736140E-02
    17  1.6000000000000E-01  9.7244566514753E-02  1.5515453263762E-02
    18  1.7000000000000E-01  1.0978356802216E-01  1.6096454926736E-02
    19  1.8000000000000E-01  1.2307553325331E-01  1.6394331114963E-02
    20  1.9000000000000E-01  1.3711652475403E-01  1.6365213221364E-02
    21  2.0000000000000E-01  1.5190167359668E-01  1.5965938045816E-02
    22  2.1000000000000E-01  1.6742508638013E-01  1.5154471095453E-02
    23  2.2000000000000E-01  1.8367975331381E-01  1.3890325460410E-02
    24  2.3000000000000E-01  2.0065745814971E-01  1.2134972983762E-02
    25  2.4000000000000E-01  2.1834869071903E-01  9.8522445104549E-03
    26  2.5000000000000E-01  2.3674256281778E-01  7.0087160906491E-03
    27  2.6000000000000E-01  2.5582672816778E-01  3.5740781289599E-03
    28  2.7000000000000E-01  2.7558730715706E-01 -4.7851539057892E-04
    29  2.8000000000000E-01  2.9600881703600E-01 -5.1721203123397E-03
    30  2.9000000000000E-01  3.1707410821350E-01 -1.0525700877159E-02
    31  3.0000000000000E-01  3.3876430726078E-01 -1.6553855776391E-02
    32  3.1000000000000E-01  3.6105876719004E-01 -2.3266573800255E-02
    33  3.2000000000000E-01  3.8393502553047E-01 -3.0669020954265E-02
    34  3.3000000000000E-01  4.0736877067637E-01 -3.8761360671015E-02
    35  3.4000000000000E-01  4.3133381693122E-01 -4.7538608485498E-02
    36  3.5000000000000E-01  4.5580208861728E-01 -5.6990522274772E-02
    37  3.6000000000000E-01  4.8074361356485E-01 -6.7101528888028E-02
    38  3.7000000000000E-01  5.0612652623660E-01 -7.7850687714074E-02
    39  3.8000000000000E-01  5.3191708068315E-01 -8.9211691451919E-02
    40  3.9000000000000E-01  5.5807967346512E-01 -1.0115290406877E-01
    41  4.0000000000000E-01  5.8457687661558E-01 -1.1363743565120E-01
    42  4.1000000000000E-01  6.1136948065499E-01 -1.2662325358097E-01
    43  4.2000000000000E-01  6.3841654760922E-01 -1.4006332920032E-01