V     ONCVPSP-4.0.1  r_core=   1.65519   1.91073   1.91073
     23.0000     13.0000      220805    zatom,zion,pspd
     8      11   2     4   600     0    pspcod,pspxc,lmax,lloc,mmax,r2well
  5.99000000  5.00000000  0.00000000    rchrg fchrg qchrg
     2     2     2     0     0    nproj
     1     1           extension_switch
   0                         3.6968962657944E+00 -5.2639439707934E-01
     1  0.0000000000000E+00  7.1543881929870E-12  3.0338548340225E-10
     2  1.0000000000000E-02  6.6395235891154E-02 -6.3163746171190E-02
     3  2.0000000000000E-02  1.3266408452693E-01 -1.2601608951966E-01
     4  3.0000000000000E-02  1.9868043557571E-01 -1.8824722861140E-01
     5  4.0000000000000E-02  2.6431873211361E-01 -2.4955055479617E-01
     6  5.0000000000000E-02  3.2945424622682E-01 -3.0962422369281E-01
     7  6.0000000000000E-02  3.9396335328707E-01 -3.6817269700308E-01
     8  7.0000000000000E-02  4.5772380444903E-01 -4.2490824512228E-01
     9  8.0000000000000E-02  5.2061499691196E-01 -4.7955240131815E-01
    10  9.0000000000000E-02  5.8251824147841E-01 -5.3183735862348E-01
    11  1.0000000000000E-01  6.4331702693363E-01 -5.8150730102930E-01
    12  1.1000000000000E-01  7.0289728075733E-01 -6.2831966107003E-01
    13  1.2000000000000E-01  7.6114762566808E-01 -6.7204629645561E-01
    14  1.3000000000000E-01  8.1795963148713E-01 -7.1247457902309E-01
    15  1.4000000000000E-01  8.7322806179590E-01 -7.4940838994537E-01
    16  1.5000000000000E-01  9.2685111484755E-01 -7.8266901584351E-01
    17  1.6000000000000E-01  9.7873065818046E-01 -8.1209594119242E-01
    18  1.7000000000000E-01  1.0287724563685E+00 -8.3754753318400E-01
    19  1.8000000000000E-01  1.0768863913313E+00 -8.5890161600750E-01
    20  1.9000000000000E-01  1.1229866746185E+00 -8.7605593231925E-01
    21  2.0000000000000E-01  1.1669920510698E+00 -8.8892849049413E-01
    22  2.1000000000000E-01  1.2088259932505E+00 -8.9745779707292E-01
    23  2.2000000000000E-01  1.2484168860531E+00 -9.0160297463603E-01
    24  2.3000000000000E-01  1.2856982008547E+00 -9.0134376613713E-01
    25  2.4000000000000E-01  1.3206086586222E+00 -8.9668042751381E-01
    26  2.5000000000000E-01  1.3530923813584E+00 -8.8763351115018E-01
    27  2.6000000000000E-01  1.3830990312912E+00 -8.7424354349034E-01
    28  2.7000000000000E-01  1.4105839372176E+00 -8.5657060078840E-01
    29  2.8000000000000E-01  1.4355082074301E+00 -8.3469378762192E-01
    30  2.9000000000000E-01  1.4578388286717E+00 -8.0871062338909E-01
    31  3.0000000000000E-01  1.4775487505865E+00 -7.7873634254707E-01
    32  3.1000000000000E-01  1.4946169551641E+00 -7.4490311483114E-01
    33  3.2000000000000E-01  1.5090285107043E+00 -7.0735919211214E-01
    34  3.3000000000000E-01  1.5207746098659E+00 -6.6626798890505E-01
    35  3.4000000000000E-01  1.5298525914046E+00 -6.2180710382958E-01
    36  3.5000000000000E-01  1.5362659452490E+00 -5.7416728954433E-01
    37  3.6000000000000E-01  1.5400243006126E+00 -5.2355137882682E-01
    38  3.7000000000000E-01  1.5411433968950E+00 -4.7017317455498E-01
    39  3.8000000000000E-01  1.5396450371791E+00 -4.1425631135891E-01
    40  3.9000000000000E-01  1.5355570241971E+00 -3.5603309665890E-01
    41  4.0000000000000E-01  1.5289130786973E+00 -2.9574333868694E-01
    42  4.1000000000000E-01  1.5197527402150E+00 -2.3363316890754E-01
    43  4.2000000000000E-01  1.5081212503202E+00 -1.6995386601213E-01
    44  4.3000000000000E-01  1.4940694184862E+00 -1.0496068836474E-01
    45  4.4000000000000E-01  1.4776534708005E+00 -3.8911721426612E-02
    46  4.5000000000000E-01  1.4589348818137E+00  2.7933253707676E-02
    47  4.6000000000000E-01  1.4379801898996E+00  9.5313864968894E-02
    48  4.7000000000000E-01  1.4148607965807E+00  1.6297022194719E-01
    49  4.8000000000000E-01  1.3896527503451E+00  2.3064395178693E-01
    50  4.9000000000000E-01  1.3624365155662E+00  2.9807919415759E-01
    51  5.0000000000000E-01  1.3332967272060E+00  3.6502355166371E-01
    52  5.1000000000000E-01  1.3023219320625E+00  4.3122899261633E-01
    53  5.2000000000000E-01  1.2696043173913E+00  4.9645270365346E-01
    54  5.3000000000000E-01  1.2352394278044E+00  5.6045789026108E-01
    55  5.4000000000000E-01  1.1993258714130E+00  6.2301452380297E-01
    56  5.5000000000000E-01  1.1619650162462E+00  6.8390003421053E-01
    57  5.6000000000000E-01  1.1232606780353E+00  7.4289994800818E-01
    58  5.7000000000000E-01  1.0833188005080E+00  7.9980847184845E-01
    59  5.8000000000000E-01  1.0422471293832E+00  8.5442902219985E-01
    60  5.9000000000000E-01  1.0001548813037E+00  9.0657470226505E-01
    61  6.0000000000000E-01  9.5715240897736E-01  9.5606872760021E-01
    62  6.1000000000000E-01  9.1335086382912E-01  1.0027448022597E+00
    63  6.2000000000000E-01  8.6886185749044E-01  1.0464474475943E+00
    64  6.3000000000000E-01  8.2379712346755E-01  1.0870322860879E+00
    65  6.4000000000000E-01  7.7826818034048E-01  1.1243662828244E+00
    66  6.5000000000000E-01  7.3238599784574E-01  1.1583279473281E+00
    67  6.6000000000000E-01  6.8626066719003E-01  1.1888074986230E+00
    68  6.7000000000000E-01  6.4000107692861E-01  1.2157069964039E+00
    69  6.8000000000000E-01  5.9371459572114E-01  1.2389404412087E+00
    70  6.9000000000000E-01  5.4750676324859E-01  1.2584338464250E+00
    71  7.0000000000000E-01  5.0148099053897E-01  1.2741252848628E+00
    72  7.1000000000000E-01  4.5573827090590E-01  1.2859649124748E+00
    73  7.2000000000000E-01  4.1037690265334E-01  1.2939149716134E+00
    74  7.3000000000000E-01  3.6549222464239E-01  1.2979497759845E+00
    75  7.4000000000000E-01  3.2117636575198E-01  1.2980556791909E+00
    76  7.5000000000000E-01  2.7751800919522E-01  1.2942310284652E+00
    77  7.6000000000000E-01  2.3460217257726E-01  1.2864861048712E+00
    78  7.7000000000000E-01  1.9251000449960E-01  1.2748430509153E+00
    79  7.8000000000000E-01  1.5131859842993E-01  1.2593357861567E+00
    80  7.9000000000000E-01  1.1110082446659E-01  1.2400099110488E+00
    81  8.0000000000000E-01  7.1925179533387E-02  1.2169225988803E+00
    82  8.1000000000000E-01  3.3855656443982E-02  1.1901424753332E+00
    83  8.2000000000000E-01 -3.0483678239667E-03  1.1597494848290E+00
    84  8.3000000000000E-01 -3.8732224404900E-02  1.1258347425081E+00
    85  8.4000000000000E-01 -7.3146025233587E-02  1.0885003703822E+00
    86  8.5000000000000E-01 -1.0624471610899E-01  1.0478593159263E+00
    87  8.6000000000000E-01 -1.3798811019905E-01  1.0040351511312E+00
    88  8.7000000000000E-01 -1.6834090215225E-01  9.5716184983591E-01
    89  8.8000000000000E-01 -1.9727266308069E-01  9.0738354099676E-01
    90  8.9000000000000E-01 -2.2475781677612E-01  8.5485423543365E-01
    91  9.0000000000000E-01 -2.5077559761422E-01  7.9973752352937E-01
    92  9.1000000000000E-01 -2.7530999069248E-01  7.4220624134156E-01
    93  9.2000000000000E-01 -2.9834965483329E-01  6.8244210262712E-01
    94  9.3000000000000E-01 -3.1988782916523E-01  6.2063529437126E-01
    95  9.4000000000000E-01 -3.3992222407211E-01  5.5698403356286E-01
    96  9.5000000000000E-01 -3.5845489736973E-01  4.9169408315973E-01
    97  9.6000000000000E-01 -3.7549211663547E-01  4.2497822544343E-01
    98  9.7000000000000E-01 -3.9104420867391E-01  3.5705569127109E-01
    99  9.8000000000000E-01 -4.0512539715334E-01  2.8815154408697E-01
   100  9.9000000000000E-01 -4.1775362949294E-01  2.1849601795736E-01
   101  1.0000000000000E+00 -4.2895039411766E-01  1.4832380933488E-01
   102  1.0100000000000E+00 -4.3874052922821E-01  7.7873322736149E-02
   103  1.0200000000000E+00 -4.4715202425627E-01  7.3858710252871E-03
   104  1.0300000000000E+00 -4.5421581519023E-01 -6.2895168469109E-02
   105  1.0400000000000E+00 -4.5996557496492E-01 -1.3272524022440E-01
   106  1.0500000000000E+00 -4.6443750010872E-01 -2.0185953683731E-01
   107  1.0600000000000E+00 -4.6767009483508E-01 -2.7005396246750E-01
   108  1.0700000000000E+00 -4.6970395375142E-01 -3.3706612993144E-01
   109  1.0800000000000E+00 -4.7058154433742E-01 -4.0265638741084E-01
   110  1.0900000000000E+00 -4.7034699031748E-01 -4.6658887020109E-01
   111  1.1000000000000E+00 -4.6904585701845E-01 -5.2863257241204E-01
   112  1.1100000000000E+00 -4.6672493976404E-01 -5.8856243305259E-01
   113  1.1200000000000E+00 -4.6343205631204E-01 -6.4616043049045E-01
   114  1.1300000000000E+00 -4.5921584429048E-01 -7.0121667888347E-01
   115  1.1400000000000E+00 -4.5412556453351E-01 -7.5353051983973E-01
   116  1.1500000000000E+00 -4.4821091115894E-01 -8.0291160228062E-01
   117  1.1600000000000E+00 -4.4152182916630E-01 -8.4918094326587E-01
   118  1.1700000000000E+00 -4.3410834026828E-01 -8.9217196239126E-01
   119  1.1800000000000E+00 -4.2602037759971E-01 -9.3173148229699E-01
   120  1.1900000000000E+00 -4.1730762987731E-01 -9.6772068782729E-01
   121  1.2000000000000E+00 -4.0801939551107E-01 -1.0000160364649E+00
   122  1.2100000000000E+00 -3.9820444709433E-01 -1.0285101128273E+00
   123  1.2200000000000E+00 -3.8791090662577E-01 -1.0531124202572E+00
   124  1.2300000000000E+00 -3.7718613174228E-01 -1.0737501028654E+00
   125  1.2400000000000E+00 -3.6607661316758E-01 -1.0903685917918E+00
   126  1.2500000000000E+00 -3.5462788350924E-01 -1.1029321699340E+00
   127  1.2600000000000E+00 -3.4288443746479E-01 -1.1114244499534E+00
   128  1.2700000000000E+00 -3.3088966342807E-01 -1.1158487609990E+00
   129  1.2800000000000E+00 -3.1868578641968E-01 -1.1162284402830E+00
   130  1.2900000000000E+00 -3.0631382220014E-01 -1.1126070264041E+00
   131  1.3000000000000E+00 -2.9381354236261E-01 -1.1050483521195E+00
   132  1.3100000000000E+00 -2.8122345014318E-01 -1.0936365351253E+00
   133  1.3200000000000E+00 -2.6858076663129E-01 -1.0784758663008E+00
   134  1.3300000000000E+00 -2.5592142701116E-01 -1.0596905957968E+00
   135  1.3400000000000E+00 -2.4328008641778E-01 -1.0374246182916E+00
   136  1.3500000000000E+00 -2.3069013494672E-01 -1.0118410596999E+00
   137  1.3600000000000E+00 -2.1818372131817E-01 -9.8312176857492E-01
   138  1.3700000000000E+00 -2.0579178465985E-01 -9.5146671639954E-01
   139  1.3800000000000E+00 -1.9354409384305E-01 -9.1709331188930E-01
   140  1.3900000000000E+00 -1.8146929377909E-01 -8.8023563534160E-01
   141  1.4000000000000E+00 -1.6959495806169E-01 -8.4114359992861E-01
   142  1.4100000000000E+00 -1.5794764732246E-01 -8.0008204765272E-01
   143  1.4200000000000E+00 -1.4655297265329E-01 -7.5732978844789E-01
   144  1.4300000000000E+00 -1.3543566343967E-01 -7.1317859160560E-01
   145  1.4400000000000E+00 -1.2461963894357E-01 -6.6793213933367E-01
   146  1.4500000000000E+00 -1.1412808297255E-01 -6.2190495279781E-01
   147  1.4600000000000E+00 -1.0398352101154E-01 -5.7542130194446E-01
   148  1.4700000000000E+00 -9.4207897834715E-02 -5.2881409342925E-01
   149  1.4800000000000E+00 -8.4822664950795E-02 -4.8242387417581E-01
   150  1.4900000000000E+00 -7.5848690909042E-02 -4.3659559763134E-01
   151  1.5000000000000E+00 -6.7305588293302E-02 -3.9166774222557E-01
   152  1.5100000000000E+00 -5.9211345141284E-02 -3.4796474454116E-01
   153  1.5200000000000E+00 -5.1582437061531E-02 -3.0579540980091E-01
   154  1.5300000000000E+00 -4.4433932195730E-02 -2.6545135491993E-01
   155  1.5400000000000E+00 -3.7779595288214E-02 -2.2720557482676E-01
   156  1.5500000000000E+00 -3.1631986170526E-02 -1.9131108900296E-01
   157  1.5600000000000E+00 -2.6002551782751E-02 -1.5799968411512E-01
   158  1.5700000000000E+00 -2.0901717414574E-02 -1.2748086577283E-01
   159  1.5800000000000E+00 -1.6338738790841E-02 -9.9927352946726E-02
   160  1.5900000000000E+00 -1.2321696374668E-02 -7.5477588001651E-02
   161  1.6000000000000E+00 -8.8584296070277E-03 -5.4283418293466E-02
   162  1.6100000000000E+00 -5.9561559457475E-03 -3.6468889575018E-02
   163  1.6200000000000E+00 -3.6214631685702E-03 -2.2129504555919E-02
   164  1.6300000000000E+00 -1.8609467736787E-03 -1.1335379665578E-02
   165  1.6400000000000E+00 -6.7419166160017E-04 -4.0890123997564E-03
   166  1.6500000000000E+00 -9.2091469884696E-05 -5.5528819519462E-04
   167  1.6600000000000E+00  1.3579224931016E-05  8.1616607561370E-05
   168  1.6700000000000E+00 -4.2594386402964E-06 -2.5670554669399E-05
   169  1.6800  0.  0.
   170  1.6900 -0. -0.
   171  1.7000  0.  0.
   172  1.7100  0.  0.
   173  1.7200  0.  0.
   174  1.7300  0.  0.
   175  1.7400  0.  0.
   176  1.7500  0.  0.
   177  1.7600  0.  0.
   178  1.7700  0.  0.
   179  1.7800  0.  0.
   180  1.7900  0.  0.
   181  1.8000  0.  0.
   182  1.8100  0.  0.
   183  1.8200  0.  0.
   184  1.8300  0.  0.
   185  1.8400  0.  0.
   186  1.8500  0.  0.
   187  1.8600  0.  0.
   188  1.8700  0.  0.
   189  1.8800  0.  0.
   190  1.8900  0.  0.
   191  1.9000  0.  0.
   192  1.9100  0.  0.
   193  1.9200  0.  0.
   194  1.9300  0.  0.
   195  1.9400  0.  0.
   196  1.9500  0.  0.
   197  1.9600  0.  0.
   198  1.9700  0.  0.
   199  1.9800  0.  0.
   200  1.9900  0.  0.
   201  2.0000  0.  0.
   202  2.0100  0.  0.
   203  2.0200  0.  0.
   204  2.0300  0.  0.
   205  2.0400  0.  0.
   206  2.0500  0.  0.
   207  2.0600  0.  0.
   208  2.0700  0.  0.
   209  2.0800  0.  0.
   210  2.0900  0.  0.
   211  2.1000  0.  0.
   212  2.1100  0.  0.
   213  2.1200  0.  0.
   214  2.1300  0.  0.
   215  2.1400  0.  0.
   216  2.1500  0.  0.
   217  2.1600  0.  0.
   218  2.1700  0.  0.
   219  2.1800  0.  0.
   220  2.1900  0.  0.
   221  2.2000  0.  0.
   222  2.2100  0.  0.
   223  2.2200  0.  0.
   224  2.2300  0.  0.
   225  2.2400  0.  0.
   226  2.2500  0.  0.
   227  2.2600  0.  0.
   228  2.2700  0.  0.
   229  2.2800  0.  0.
   230  2.2900  0.  0.
   231  2.3000  0.  0.
   232  2.3100  0.  0.
   233  2.3200  0.  0.
   234  2.3300  0.  0.
   235  2.3400  0.  0.
   236  2.3500  0.  0.
   237  2.3600  0.  0.
   238  2.3700  0.  0.
   239  2.3800  0.  0.
   240  2.3900  0.  0.
   241  2.4000  0.  0.
   242  2.4100  0.  0.
   243  2.4200  0.  0.
   244  2.4300  0.  0.
   245  2.4400  0.  0.
   246  2.4500  0.  0.
   247  2.4600  0.  0.
   248  2.4700  0.  0.
   249  2.4800  0.  0.
   250  2.4900  0.  0.
   251  2.5000  0.  0.
   252  2.5100  0.  0.
   253  2.5200  0.  0.
   254  2.5300  0.  0.
   255  2.5400  0.  0.
   256  2.5500  0.  0.
   257  2.5600  0.  0.
   258  2.5700  0.  0.
   259  2.5800  0.  0.
   260  2.5900  0.  0.
   261  2.6000  0.  0.
   262  2.6100  0.  0.
   263  2.6200  0.  0.
   264  2.6300  0.  0.
   265  2.6400  0.  0.
   266  2.6500  0.  0.
   267  2.6600  0.  0.
   268  2.6700  0.  0.
   269  2.6800  0.  0.
   270  2.6900  0.  0.
   271  2.7000  0.  0.
   272  2.7100  0.  0.
   273  2.7200  0.  0.
   274  2.7300  0.  0.
   275  2.7400  0.  0.
   276  2.7500  0.  0.
   277  2.7600  0.  0.
   278  2.7700  0.  0.
   279  2.7800  0.  0.
   280  2.7900  0.  0.
   281  2.8000  0.  0.
   282  2.8100  0.  0.
   283  2.8200  0.  0.
   284  2.8300  0.  0.
   285  2.8400  0.  0.
   286  2.8500  0.  0.
   287  2.8600  0.  0.
   288  2.8700  0.  0.
   289  2.8800  0.  0.
   290  2.8900  0.  0.
   291  2.9000  0.  0.
   292  2.9100  0.  0.
   293  2.9200  0.  0.
   294  2.9300  0.  0.
   295  2.9400  0.  0.
   296  2.9500  0.  0.
   297  2.9600  0.  0.
   298  2.9700  0.  0.
   299  2.9800  0.  0.
   300  2.9900  0.  0.
   301  3.0000  0.  0.
   302  3.0100  0.  0.
   303  3.0200  0.  0.
   304  3.0300  0.  0.
   305  3.0400  0.  0.
   306  3.0500  0.  0.
   307  3.0600  0.  0.
   308  3.0700  0.  0.
   309  3.0800  0.  0.
   310  3.0900  0.  0.
   311  3.1000  0.  0.
   312  3.1100  0.  0.
   313  3.1200  0.  0.
   314  3.1300  0.  0.
   315  3.1400  0.  0.
   316  3.1500  0.  0.
   317  3.1600  0.  0.
   318  3.1700  0.  0.
   319  3.1800  0.  0.
   320  3.1900  0.  0.
   321  3.2000  0.  0.
   322  3.2100  0.  0.
   323  3.2200  0.  0.
   324  3.2300  0.  0.
   325  3.2400  0.  0.
   326  3.2500  0.  0.
   327  3.2600  0.  0.
   328  3.2700  0.  0.
   329  3.2800  0.  0.
   330  3.2900  0.  0.
   331  3.3000  0.  0.
   332  3.3100  0.  0.
   333  3.3200  0.  0.
   334  3.3300  0.  0.
   335  3.3400  0.  0.
   336  3.3500  0.  0.
   337  3.3600  0.  0.
   338  3.3700  0.  0.
   339  3.3800  0.  0.
   340  3.3900  0.  0.
   341  3.4000  0.  0.
   342  3.4100  0.  0.
   343  3.4200  0.  0.
   344  3.4300  0.  0.
   345  3.4400  0.  0.
   346  3.4500  0.  0.
   347  3.4600  0.  0.
   348  3.4700  0.  0.
   349  3.4800  0.  0.
   350  3.4900  0.  0.
   351  3.5000  0.  0.
   352  3.5100  0.  0.
   353  3.5200  0.  0.
   354  3.5300  0.  0.
   355  3.5400  0.  0.
   356  3.5500  0.  0.
   357  3.5600  0.  0.
   358  3.5700  0.  0.
   359  3.5800  0.  0.
   360  3.5900  0.  0.
   361  3.6000  0.  0.
   362  3.6100  0.  0.
   363  3.6200  0.  0.
   364  3.6300  0.  0.
   365  3.6400  0.  0.
   366  3.6500  0.  0.
   367  3.6600  0.  0.
   368  3.6700  0.  0.
   369  3.6800  0.  0.
   370  3.6900  0.  0.
   371  3.7000  0.  0.
   372  3.7100  0.  0.
   373  3.7200  0.  0.
   374  3.7300  0.  0.
   375  3.7400  0.  0.
   376  3.7500  0.  0.
   377  3.7600  0.  0.
   378  3.7700  0.  0.
   379  3.7800  0.  0.
   380  3.7900  0.  0.
   381  3.8000  0.  0.
   382  3.8100  0.  0.
   383  3.8200  0.  0.
   384  3.8300  0.  0.
   385  3.8400  0.  0.
   386  3.8500  0.  0.
   387  3.8600  0.  0.
   388  3.8700  0.  0.
   389  3.8800  0.  0.
   390  3.8900  0.  0.
   391  3.9000  0.  0.
   392  3.9100  0.  0.
   393  3.9200  0.  0.
   394  3.9300  0.  0.
   395  3.9400  0.  0.
   396  3.9500  0.  0.
   397  3.9600  0.  0.
   398  3.9700  0.  0.
   399  3.9800  0.  0.
   400  3.9900  0.  0.
   401  4.0000  0.  0.
   402  4.0100  0.  0.
   403  4.0200  0.  0.
   404  4.0300  0.  0.
   405  4.0400  0.  0.
   406  4.0500  0.  0.
   407  4.0600  0.  0.
   408  4.0700  0.  0.
   409  4.0800  0.  0.
   410  4.0900  0.  0.
   411  4.1000  0.  0.
   412  4.1100  0.  0.
   413  4.1200  0.  0.
   414  4.1300  0.  0.
   415  4.1400  0.  0.
   416  4.1500  0.  0.
   417  4.1600  0.  0.
   418  4.1700  0.  0.
   419  4.1800  0.  0.
   420  4.1900  0.  0.
   421  4.2000  0.  0.
   422  4.2100  0.  0.
   423  4.2200  0.  0.
   424  4.2300  0.  0.
   425  4.2400  0.  0.
   426  4.2500  0.  0.
   427  4.2600  0.  0.
   428  4.2700  0.  0.
   429  4.2800  0.  0.
   430  4.2900  0.  0.
   431  4.3000  0.  0.
   432  4.3100  0.  0.
   433  4.3200  0.  0.
   434  4.3300  0.  0.
   435  4.3400  0.  0.
   436  4.3500  0.  0.
   437  4.3600  0.  0.
   438  4.3700  0.  0.
   439  4.3800  0.  0.
   440  4.3900  0.  0.
   441  4.4000  0.  0.
   442  4.4100  0.  0.
   443  4.4200  0.  0.
   444  4.4300  0.  0.
   445  4.4400  0.  0.
   446  4.4500  0.  0.
   447  4.4600  0.  0.
   448  4.4700  0.  0.
   449  4.4800  0.  0.
   450  4.4900  0.  0.
   451  4.5000  0.  0.
   452  4.5100  0.  0.
   453  4.5200  0.  0.
   454  4.5300  0.  0.
   455  4.5400  0.  0.
   456  4.5500  0.  0.
   457  4.5600  0.  0.
   458  4.5700  0.  0.
   459  4.5800  0.  0.
   460  4.5900  0.  0.
   461  4.6000  0.  0.
   462  4.6100  0.  0.
   463  4.6200  0.  0.
   464  4.6300  0.  0.
   465  4.6400  0.  0.
   466  4.6500  0.  0.
   467  4.6600  0.  0.
   468  4.6700  0.  0.
   469  4.6800  0.  0.
   470  4.6900  0.  0.
   471  4.7000  0.  0.
   472  4.7100  0.  0.
   473  4.7200  0.  0.
   474  4.7300  0.  0.
   475  4.7400  0.  0.
   476  4.7500  0.  0.
   477  4.7600  0.  0.
   478  4.7700  0.  0.
   479  4.7800  0.  0.
   480  4.7900  0.  0.
   481  4.8000  0.  0.
   482  4.8100  0.  0.
   483  4.8200  0.  0.
   484  4.8300  0.  0.
   485  4.8400  0.  0.
   486  4.8500  0.  0.
   487  4.8600  0.  0.
   488  4.8700  0.  0.
   489  4.8800  0.  0.
   490  4.8900  0.  0.
   491  4.9000  0.  0.
   492  4.9100  0.  0.
   493  4.9200  0.  0.
   494  4.9300  0.  0.
   495  4.9400  0.  0.
   496  4.9500  0.  0.
   497  4.9600  0.  0.
   498  4.9700  0.  0.
   499  4.9800  0.  0.
   500  4.9900  0.  0.
   501  5.0000  0.  0.
   502  5.0100  0.  0.
   503  5.0200  0.  0.
   504  5.0300  0.  0.
   505  5.0400  0.  0.
   506  5.0500  0.  0.
   507  5.0600  0.  0.
   508  5.0700  0.  0.
   509  5.0800  0.  0.
   510  5.0900  0.  0.
   511  5.1000  0.  0.
   512  5.1100  0.  0.
   513  5.1200  0.  0.
   514  5.1300  0.  0.
   515  5.1400  0.  0.
   516  5.1500  0.  0.
   517  5.1600  0.  0.
   518  5.1700  0.  0.
   519  5.1800  0.  0.
   520  5.1900  0.  0.
   521  5.2000  0.  0.
   522  5.2100  0.  0.
   523  5.2200  0.  0.
   524  5.2300  0.  0.
   525  5.2400  0.  0.
   526  5.2500  0.  0.
   527  5.2600  0.  0.
   528  5.2700  0.  0.
   529  5.2800  0.  0.
   530  5.2900  0.  0.
   531  5.3000  0.  0.
   532  5.3100  0.  0.
   533  5.3200  0.  0.
   534  5.3300  0.  0.
   535  5.3400  0.  0.
   536  5.3500  0.  0.
   537  5.3600  0.  0.
   538  5.3700  0.  0.
   539  5.3800  0.  0.
   540  5.3900  0.  0.
   541  5.4000  0.  0.
   542  5.4100  0.  0.
   543  5.4200  0.  0.
   544  5.4300  0.  0.
   545  5.4400  0.  0.
   546  5.4500  0.  0.
   547  5.4600  0.  0.
   548  5.4700  0.  0.
   549  5.4800  0.  0.
   550  5.4900  0.  0.
   551  5.5000  0.  0.
   552  5.5100  0.  0.
   553  5.5200  0.  0.
   554  5.5300  0.  0.
   555  5.5400  0.  0.
   556  5.5500  0.  0.
   557  5.5600  0.  0.
   558  5.5700  0.  0.
   559  5.5800  0.  0.
   560  5.5900  0.  0.
   561  5.6000  0.  0.
   562  5.6100  0.  0.
   563  5.6200  0.  0.
   564  5.6300  0.  0.
   565  5.6400  0.  0.
   566  5.6500  0.  0.
   567  5.6600  0.  0.
   568  5.6700  0.  0.
   569  5.6800  0.  0.
   570  5.6900  0.  0.
   571  5.7000  0.  0.
   572  5.7100  0.  0.
   573  5.7200  0.  0.
   574  5.7300  0.  0.
   575  5.7400  0.  0.
   576  5.7500  0.  0.
   577  5.7600  0.  0.
   578  5.7700  0.  0.
   579  5.7800  0.  0.
   580  5.7900  0.  0.
   581  5.8000  0.  0.
   582  5.8100  0.  0.
   583  5.8200  0.  0.
   584  5.8300  0.  0.
   585  5.8400  0.  0.
   586  5.8500  0.  0.
   587  5.8600  0.  0.
   588  5.8700  0.  0.
   589  5.8800  0.  0.
   590  5.8900  0.  0.
   591  5.9000  0.  0.
   592  5.9100  0.  0.
   593  5.9200  0.  0.
   594  5.9300  0.  0.
   595  5.9400  0.  0.
   596  5.9500  0.  0.
   597  5.9600  0.  0.
   598  5.9700  0.  0.
   599  5.9800  0.  0.
   600  5.9900  0.  0.
   1                        -1.0943047764091E+00 -2.1707800713957E-01
     1  0.0000000000000E+00 -4.2830753527179E-10  2.5830637281898E-09
     2  1.0000000000000E-02  2.6091869436352E-04  9.1164118186959E-04
     3  2.0000000000000E-02  1.0453198373490E-03  3.6362735969692E-03
     4  3.0000000000000E-02  2.3581170235423E-03  8.1431404418732E-03
     5  4.0000000000000E-02  4.2074278629701E-03  1.4381367565168E-02
     6  5.0000000000000E-02  6.6044672328615E-03  2.2280539229367E-02
     7  6.0000000000000E-02  9.5633994666130E-03  3.1751494206082E-02
     8  7.0000000000000E-02  1.3101151093330E-02  4.2687332389286E-02
     9  8.0000000000000E-02  1.7237186169625E-02  5.4964619528451E-02
    10  9.0000000000000E-02  2.1993246649736E-02  6.8444775262296E-02
    11  1.0000000000000E-01  2.7393060615703E-02  8.2975627405368E-02
    12  1.1000000000000E-01  3.3462021532105E-02  9.8393113435011E-02
    13  1.2000000000000E-01  4.0226841995534E-02  1.1452310836879E-01
    14  1.3000000000000E-01  4.7715185714406E-02  1.3118335673647E-01
    15  1.4000000000000E-01  5.5955281676523E-02  1.4818548515570E-01
    16  1.5000000000000E-01  6.4975524637921E-02  1.6533707112993E-01
    17  1.6000000000000E-01  7.4804066194713E-02  1.8244374311508E-01
    18  1.7000000000000E-01  8.5468400778999E-02  1.9931128665131E-01
    19  1.8000000000000E-01  9.6994950949293E-02  2.1574773143515E-01
    20  1.9000000000000E-01  1.0940865632571E-01  2.3156539460863E-01
    21  2.0000000000000E-01  1.2273257045048E-01  2.4658285626499E-01
    22  2.1000000000000E-01  1.3698746973670E-01  2.6062684420033E-01
    23  2.2000000000000E-01  1.5219147850414E-01  2.7353400626624E-01
    24  2.3000000000000E-01  1.6835971389257E-01  2.8515255027994E-01
    25  2.4000000000000E-01  1.8550395419373E-01  2.9534373330386E-01
    26  2.5000000000000E-01  2.0363233385544E-01  3.0398318419229E-01
    27  2.6000000000000E-01  2.2274906808993E-01  3.1096204558687E-01
    28  2.7000000000000E-01  2.4285420966662E-01  3.1618792399835E-01
    29  2.8000000000000E-01  2.6394344009291E-01  3.1958563920214E-01
    30  2.9000000000000E-01  2.8600789698843E-01  3.2109776686641E-01
    31  3.0000000000000E-01  3.0903403904565E-01  3.2068497108674E-01
    32  3.1000000000000E-01  3.3300354954571E-01  3.1832612628345E-01
    33  3.2000000000000E-01  3.5789327897032E-01  3.1401823068742E-01
    34  3.3000000000000E-01  3.8367522682234E-01  3.0777611636199E-01
    35  3.4000000000000E-01  4.1031656234531E-01  2.9963196334333E-01
    36  3.5000000000000E-01  4.3777968342069E-01  2.8963462799461E-01
    37  3.6000000000000E-01  4.6602231252610E-01  2.7784879802569E-01
    38  3.7000000000000E-01  4.9499762826296E-01  2.6435398879817E-01
    39  3.8000000000000E-01  5.2465443061204E-01  2.4924339748521E-01
    40  3.9000000000000E-01  5.5493733775547E-01  2.3262263336061E-01
    41  4.0000000000000E-01  5.8578701201569E-01  2.1460834392900E-01
    42  4.1000000000000E-01  6.1714041221136E-01  1.9532675775782E-01
    43  4.2000000000000E-01  6.4893106951727E-01  1.7491216571906E-01
    44  4.3000000000000E-01  6.8108938374477E-01  1.5350536287973E-01
    45  4.4000000000000E-01  7.1354293683053E-01  1.3125207349096E-01
    46  4.5000000000000E-01  7.4621682023697E-01  1.0830138141134E-01
    47  4.6000000000000E-01  7.7903397292748E-01  8.4804187864929E-02
    48  4.7000000000000E-01  8.1191552658328E-01  6.0911717682091E-02
    49  4.8000000000000E-01  8.4478115477557E-01  3.6774094116203E-02
    50  4.9000000000000E-01  8.7754942289606E-01  1.2539000983809E-02
    51  5.0000000000000E-01  9.1013813577757E-01 -1.1649550739164E-02
    52  5.1000000000000E-01  9.4246468010301E-01 -3.5652336593292E-02
    53  5.2000000000000E-01  9.7444635890242E-01 -5.9335899392640E-02
    54  5.3000000000000E-01  1.0060007156697E+00 -8.2573386141407E-02
    55  5.4000000000000E-01  1.0370458458899E+00 -1.0524523261487E-01
    56  5.5000000000000E-01  1.0675006940521E+00 -1.2723968965556E-01
    57  5.6000000000000E-01  1.0972853345210E+00 -1.4845318786632E-01
    58  5.7000000000000E-01  1.1263212349591E+00 -1.6879054005600E-01
    59  5.8000000000000E-01  1.1545315013115E+00 -1.8816498347490E-01
    60  5.9000000000000E-01  1.1818411036965E+00 -2.0649806652118E-01
    61  6.0000000000000E-01  1.2081770828677E+00 -2.2371938717255E-01
    62  6.1000000000000E-01  1.2334687372379E+00 -2.3976619285484E-01
    63  6.2000000000000E-01  1.2576477907609E+00 -2.5458285376817E-01
    64  6.3000000000000E-01  1.2806485422611E+00 -2.6812022381364E-01
    65  6.4000000000000E-01  1.3024079970764E+00 -2.8033490516757E-01
    66  6.5000000000000E-01  1.3228659821248E+00 -2.9118843420597E-01
    67  6.6000000000000E-01  1.3419652457283E+00 -3.0064640786010E-01
    68  6.7000000000000E-01  1.3596515437149E+00 -3.0867757056705E-01
    69  6.8000000000000E-01  1.3758737134757E+00 -3.1525288274240E-01
    70  6.9000000000000E-01  1.3905837377696E+00 -3.2034459213448E-01
    71  7.0000000000000E-01  1.4037368001507E+00 -3.2392532951230E-01
    72  7.1000000000000E-01  1.4152913339303E+00 -3.2596724988470E-01
    73  7.2000000000000E-01  1.4252090665866E+00 -3.2644123984812E-01
    74  7.3000000000000E-01  1.4334550614950E+00 -3.2531621072265E-01
    75  7.4000000000000E-01  1.4399977587726E+00 -3.2255849586490E-01
    76  7.5000000000000E-01  1.4448090169102E+00 -3.1813136896400E-01
    77  7.6000000000000E-01  1.4478641567151E+00 -3.1199469824911E-01
    78  7.7000000000000E-01  1.4491420088971E+00 -3.0410474938899E-01
    79  7.8000000000000E-01  1.4486249664141E+00 -2.9441414747704E-01
    80  7.9000000000000E-01  1.4462990424482E+00 -2.8287200589854E-01
    81  8.0000000000000E-01  1.4421539346142E+00 -2.6942422710945E-01
    82  8.1000000000000E-01  1.4361830957168E+00 -2.5401397745555E-01
    83  8.2000000000000E-01  1.4283838110721E+00 -2.3658233517010E-01
    84  8.3000000000000E-01  1.4187572820991E+00 -2.1706910764796E-01
    85  8.4000000000000E-01  1.4073087155740E+00 -1.9541381105498E-01
    86  8.5000000000000E-01  1.3940474176300E+00 -1.7155680233009E-01
    87  8.6000000000000E-01  1.3789868912788E+00 -1.4544055072957E-01
    88  8.7000000000000E-01  1.3621449359418E+00 -1.1701103328458E-01
    89  8.8000000000000E-01  1.3435437472018E+00 -8.6219235942056E-02
    90  8.9000000000000E-01  1.3232100147362E+00 -5.3022739778834E-02
    91  9.0000000000000E-01  1.3011750161706E+00 -1.7387369551593E-02
    92  9.1000000000000E-01  1.2774747043970E+00  2.0711119983002E-02
    93  9.2000000000000E-01  1.2521497857492E+00  6.1285346051107E-02
    94  9.3000000000000E-01  1.2252457863071E+00  1.0433461536987E-01
    95  9.4000000000000E-01  1.1968131035338E+00  1.4984328517826E-01
    96  9.5000000000000E-01  1.1669070404153E+00  1.9777919616446E-01
    97  9.6000000000000E-01  1.1355878192952E+00  2.4809220563254E-01
    98  9.7000000000000E-01  1.1029205726598E+00  3.0071284880300E-01
    99  9.8000000000000E-01  1.0689753082455E+00  3.5555115527494E-01
   100  9.9000000000000E-01  1.0338268459991E+00  4.1249564639859E-01
   101  1.0000000000000E+00  9.9755472463499E-01  4.7141253762173E-01
   102  1.0100000000000E+00  9.6024307578272E-01  5.3214516780304E-01
   103  1.0200000000000E+00  9.2198046401781E-01  5.9451367504914E-01
   104  1.0300000000000E+00  8.8285969140332E-01  6.5831493585647E-01
   105  1.0400000000000E+00  8.4297756554175E-01  7.2332278125874E-01
   106  1.0500000000000E+00  8.0243463053952E-01  7.8928850033377E-01
   107  1.0600000000000E+00  7.6133486071564E-01  8.5594163784871E-01
   108  1.0700000000000E+00  7.1978531733638E-01  9.2299108906614E-01
   109  1.0800000000000E+00  6.7789576912247E-01  9.9012649085383E-01
   110  1.0900000000000E+00  6.3577827775026E-01  1.0570199042664E+00
   111  1.1000000000000E+00  5.9354675004378E-01  1.1233277797868E+00