Cr    ONCVPSP-4.0.1  r_core=   1.66398   2.07622   1.93240
     24.0000     14.0000      220722    zatom,zion,pspd
     8      11   2     4   600     0    pspcod,pspxc,lmax,lloc,mmax,r2well
  5.99000000  5.00000000  0.00000000    rchrg fchrg qchrg
     2     2     2     0     0    nproj
     1     1           extension_switch
   0                         3.9412965947294E+00 -1.5792501353227E-01
     1  0.0000000000000E+00 -2.4841129153685E-11 -1.7069440305661E-10
     2  1.0000000000000E-02  7.7224381493176E-02  5.2791588534248E-02
     3  2.0000000000000E-02  1.5426324779539E-01  1.0531891859411E-01
     4  3.0000000000000E-02  2.3093163894828E-01  1.5731909371712E-01
     5  4.0000000000000E-02  3.0704570360227E-01  2.0853193408914E-01
     6  5.0000000000000E-02  3.8242324868635E-01  2.5870131647286E-01
     7  6.0000000000000E-02  4.5688428353365E-01  3.0757649218271E-01
     8  7.0000000000000E-02  5.3025155664414E-01  3.5491337598922E-01
     9  8.0000000000000E-02  6.0235108329016E-01  4.0047579900643E-01
    10  9.0000000000000E-02  6.7301266220190E-01  4.4403671882760E-01
    11  1.0000000000000E-01  7.4207037960661E-01  4.8537938042447E-01
    12  1.1000000000000E-01  8.0936309893816E-01  5.2429842161401E-01
    13  1.2000000000000E-01  8.7473493458243E-01  5.6060091722075E-01
    14  1.3000000000000E-01  9.3803570807813E-01  5.9410735642054E-01
    15  1.4000000000000E-01  9.9912138525222E-01  6.2465254814159E-01
    16  1.5000000000000E-01  1.0578544928346E+00  6.5208644981710E-01
    17  1.6000000000000E-01  1.1141045131665E+00  6.7627491522938E-01
    18  1.7000000000000E-01  1.1677482556922E+00  6.9710035765423E-01
    19  1.8000000000000E-01  1.2186702040041E+00  7.1446232500400E-01
    20  1.9000000000000E-01  1.2667628372939E+00  7.2827798417568E-01
    21  2.0000000000000E-01  1.3119269251529E+00  7.3848251233152E-01
    22  2.1000000000000E-01  1.3540717947561E+00  7.4502939337399E-01
    23  2.2000000000000E-01  1.3931155695589E+00  7.4789061841684E-01
    24  2.3000000000000E-01  1.4289853787388E+00  7.4705678960056E-01
    25  2.4000000000000E-01  1.4616175367120E+00  7.4253712714668E-01
    26  2.5000000000000E-01  1.4909576921626E+00  7.3435938009023E-01
    27  2.6000000000000E-01  1.5169609461291E+00  7.2256964166812E-01
    28  2.7000000000000E-01  1.5395919388012E+00  7.0723207087141E-01
    29  2.8000000000000E-01  1.5588249047914E+00  6.8842852218679E-01
    30  2.9000000000000E-01  1.5746436967578E+00  6.6625808605502E-01
    31  3.0000000000000E-01  1.5870417773661E+00  6.4083654305756E-01
    32  3.1000000000000E-01  1.5960221796949E+00  6.1229573530560E-01
    33  3.2000000000000E-01  1.6015974362981E+00  5.8078285894336E-01
    34  3.3000000000000E-01  1.6037894772522E+00  5.4645968208971E-01
    35  3.4000000000000E-01  1.6026294976303E+00  5.0950169292427E-01
    36  3.5000000000000E-01  1.5981577949502E+00  4.7009718297580E-01
    37  3.6000000000000E-01  1.5904235772587E+00  4.2844627098791E-01
    38  3.7000000000000E-01  1.5794847426156E+00  3.8475987302119E-01
    39  3.8000000000000E-01  1.5654076308487E+00  3.3925862469605E-01
    40  3.9000000000000E-01  1.5482667485501E+00  2.9217176169040E-01
    41  4.0000000000000E-01  1.5281444683826E+00  2.4373596477563E-01
    42  4.1000000000000E-01  1.5051307038592E+00  1.9419417580541E-01
    43  4.2000000000000E-01  1.4793225608470E+00  1.4379439116230E-01
    44  4.3000000000000E-01  1.4508239671338E+00  9.2788439218769E-02
    45  4.4000000000000E-01  1.4197452814738E+00  4.1430748378915E-02
    46  4.5000000000000E-01  1.3862028836061E+00 -1.0022887759306E-02
    47  4.6000000000000E-01  1.3503187468056E+00 -6.1316541650710E-02
    48  4.7000000000000E-01  1.3122199945924E+00 -1.1219537309124E-01
    49  4.8000000000000E-01  1.2720384432804E+00 -1.6240683432340E-01
    50  4.9000000000000E-01  1.2299101320974E+00 -2.1170185291073E-01
    51  5.0000000000000E-01  1.1859748426524E+00 -2.5983598654362E-01
    52  5.1000000000000E-01  1.1403756095622E+00 -3.0657054418168E-01
    53  5.2000000000000E-01  1.0932582240794E+00 -3.5167366820849E-01
    54  5.3000000000000E-01  1.0447707325852E+00 -3.9492137257489E-01
    55  5.4000000000000E-01  9.9506293182616E-01 -4.3609853223071E-01
    56  5.5000000000000E-01  9.4428586278105E-01 -4.7499981949099E-01
    57  5.6000000000000E-01  8.9259130504185E-01 -5.1143058334994E-01
    58  5.7000000000000E-01  8.4013127358743E-01 -5.4520766813824E-01
    59  5.8000000000000E-01  7.8705751981049E-01 -5.7616016831717E-01
    60  5.9000000000000E-01  7.3352103863600E-01 -6.0413011661151E-01
    61  6.0000000000000E-01  6.7967158353811E-01 -6.2897310309909E-01
    62  6.1000000000000E-01  6.2565719122423E-01 -6.5055882329853E-01
    63  6.2000000000000E-01  5.7162371770921E-01 -6.6877155371911E-01
    64  6.3000000000000E-01  5.1771438744987E-01 -6.8351055376200E-01
    65  6.4000000000000E-01  4.6406935715033E-01 -6.9469039328196E-01
    66  6.5000000000000E-01  4.1082529578244E-01 -7.0224120553293E-01
    67  6.6000000000000E-01  3.5811498229250E-01 -7.0610886562675E-01
    68  6.7000000000000E-01  3.0606692238713E-01 -7.0625509502888E-01
    69  6.8000000000000E-01  2.5480498570614E-01 -7.0265749299476E-01
    70  6.9000000000000E-01  2.0444806460045E-01 -6.9530949621694E-01
    71  7.0000000000000E-01  1.5510975563831E-01 -6.8422026829890E-01
    72  7.1000000000000E-01  1.0689806486320E-01 -6.6941452099954E-01
    73  7.2000000000000E-01  5.9915137723438E-02 -6.5093226949815E-01
    74  7.3000000000000E-01  1.4257014485849E-02 -6.2882852421363E-01
    75  7.4000000000000E-01 -2.9986588164501E-02 -6.0317292196963E-01
    76  7.5000000000000E-01 -7.2732468749958E-02 -5.7404929953356E-01
    77  7.6000000000000E-01 -1.1390410537823E-01 -5.4155521276412E-01
    78  7.7000000000000E-01 -1.5343179251675E-01 -5.0580140478573E-01
    79  7.8000000000000E-01 -1.9125274992598E-01 -4.6691122676294E-01
    80  7.9000000000000E-01 -2.2731120363304E-01 -4.2502001497715E-01
    81  8.0000000000000E-01 -2.6155843894642E-01 -3.8027442801024E-01
    82  8.1000000000000E-01 -2.9395282563070E-01 -3.3283174791540E-01
    83  8.2000000000000E-01 -3.2445981547826E-01 -2.8285914930533E-01
    84  8.3000000000000E-01 -3.5305191263075E-01 -2.3053294031373E-01
    85  8.4000000000000E-01 -3.7970861711721E-01 -1.7603777938495E-01
    86  8.5000000000000E-01 -4.0441634218708E-01 -1.1956587182574E-01
    87  8.6000000000000E-01 -4.2716830612472E-01 -6.1316150007154E-02
    88  8.7000000000000E-01 -4.4796439933660E-01 -1.4934410389509E-03
    89  8.8000000000000E-01 -4.6681102760310E-01  5.9692374345750E-02
    90  8.9000000000000E-01 -4.8372093248265E-01  1.2202720806122E-01
    91  9.0000000000000E-01 -4.9871298994727E-01  1.8529361258059E-01
    92  9.1000000000000E-01 -5.1181198841389E-01  2.4927162710745E-01
    93  9.2000000000000E-01 -5.2304838741580E-01  3.1373961877467E-01
    94  9.3000000000000E-01 -5.3245805823208E-01  3.7847511579667E-01
    95  9.4000000000000E-01 -5.4008200785993E-01  4.4325562966990E-01
    96  9.5000000000000E-01 -5.4596608777507E-01  5.0785946369408E-01
    97  9.6000000000000E-01 -5.5016068897850E-01  5.7206650526999E-01
    98  9.7000000000000E-01 -5.5272042487348E-01  6.3565899961853E-01
    99  9.8000000000000E-01 -5.5370380355488E-01  6.9842230275875E-01
   100  9.9000000000000E-01 -5.5317289112355E-01  7.6014561177610E-01
   101  1.0000000000000E+00 -5.5119296766056E-01  8.2062267060900E-01
   102  1.0100000000000E+00 -5.4783217751095E-01  8.7965244977546E-01
   103  1.0200000000000E+00 -5.4316117553314E-01  9.3703979865616E-01
   104  1.0300000000000E+00 -5.3725277096837E-01  9.9259606914061E-01
   105  1.0400000000000E+00 -5.3018157057511E-01  1.0461397096311E+00
   106  1.0500000000000E+00 -5.2202362265573E-01  1.0974968285826E+00
   107  1.0600000000000E+00 -5.1285606357724E-01  1.1465017269338E+00
   108  1.0700000000000E+00 -5.0275676835462E-01  1.1929973989600E+00
   109  1.0800000000000E+00 -4.9180400682467E-01  1.2368360012436E+00
   110  1.0900000000000E+00 -4.8007610688992E-01  1.2778792896194E+00
   111  1.1000000000000E+00 -4.6765112625711E-01  1.3159990241062E+00
   112  1.1100000000000E+00 -4.5460653403250E-01  1.3510773419861E+00
   113  1.1200000000000E+00 -4.4101890346815E-01  1.3830070993299E+00
   114  1.1300000000000E+00 -4.2696361707804E-01  1.4116921814073E+00
   115  1.1400000000000E+00 -4.1251458526318E-01  1.4370477825433E+00
   116  1.1500000000000E+00 -3.9774397949886E-01  1.4590006561094E+00
   117  1.1600000000000E+00 -3.8272198104659E-01  1.4774893354509E+00
   118  1.1700000000000E+00 -3.6751654605867E-01  1.4924643266619E+00
   119  1.1800000000000E+00 -3.5219318784444E-01  1.5038882742277E+00
   120  1.1900000000000E+00 -3.3681477696488E-01  1.5117361006487E+00
   121  1.2000000000000E+00 -3.2144135971804E-01  1.5159951212592E+00
   122  1.2100000000000E+00 -3.0612999546957E-01  1.5166651355419E+00
   123  1.2200000000000E+00 -2.9093461317501E-01  1.5137584963243E+00
   124  1.2300000000000E+00 -2.7590588732943E-01  1.5073001583268E+00
   125  1.2400000000000E+00 -2.6109113347044E-01  1.4973277076066E+00
   126  1.2500000000000E+00 -2.4653422325001E-01  1.4838913735188E+00
   127  1.2600000000000E+00 -2.3227551898062E-01  1.4670540248816E+00
   128  1.2700000000000E+00 -2.1835182745354E-01  1.4468911521031E+00
   129  1.2800000000000E+00 -2.0479637272002E-01  1.4234908370862E+00
   130  1.2900000000000E+00 -1.9163878742256E-01  1.3969537127885E+00
   131  1.3000000000000E+00 -1.7890512216206E-01  1.3673929143674E+00
   132  1.3100000000000E+00 -1.6661787228973E-01  1.3349340238917E+00
   133  1.3200000000000E+00 -1.5479602141871E-01  1.2997150106466E+00
   134  1.3300000000000E+00 -1.4345510086200E-01  1.2618861690991E+00
   135  1.3400000000000E+00 -1.3260726411953E-01  1.2216100566268E+00
   136  1.3500000000000E+00 -1.2226137545889E-01  1.1790614331421E+00
   137  1.3600000000000E+00 -1.1242311156217E-01  1.1344272047690E+00
   138  1.3700000000000E+00 -1.0309507514530E-01  1.0879063737432E+00
   139  1.3800000000000E+00 -9.4276919397165E-02  1.0397099967179E+00
   140  1.3900000000000E+00 -8.5965482033341E-02  9.9006115365882E-01
   141  1.4000000000000E+00 -7.8154927714210E-02  9.3919492950251E-01
   142  1.4100000000000E+00 -7.0836897539609E-02  8.8735841073951E-01
   143  1.4200000000000E+00 -6.4000664275171E-02  8.3481070032244E-01
   144  1.4300000000000E+00 -5.7633291992272E-02  7.8182295119457E-01
   145  1.4400000000000E+00 -5.1719799784271E-02  7.2867837805855E-01
   146  1.4500000000000E+00 -4.6243334114696E-02  6.7567195430993E-01
   147  1.4600000000000E+00 -4.1185548040958E-02  6.2310098290833E-01
   148  1.4700000000000E+00 -3.6527108485649E-02  5.7125243906393E-01
   149  1.4800000000000E+00 -3.2248022716535E-02  5.2040059176495E-01
   150  1.4900000000000E+00 -2.8327921584882E-02  4.7080650124703E-01
   151  1.5000000000000E+00 -2.4746334822685E-02  4.2271751094050E-01
   152  1.5100000000000E+00 -2.1482956340110E-02  3.7636677648237E-01
   153  1.5200000000000E+00 -1.8517898476124E-02  3.3197282738845E-01
   154  1.5300000000000E+00 -1.5831934092918E-02  2.8973916323236E-01
   155  1.5400000000000E+00 -1.3406725467262E-02  2.4985388598080E-01
   156  1.5500000000000E+00 -1.1225038568648E-02  2.1248937640529E-01
   157  1.5600000000000E+00 -9.2709471902616E-03  1.7780193392481E-01
   158  1.5700000000000E+00 -7.5300019003689E-03  1.4593172971942E-01
   159  1.5800000000000E+00 -5.9894363086546E-03  1.1700212678184E-01
   160  1.5900000000000E+00 -4.6395608304402E-03  9.1099238721121E-02
   161  1.6000000000000E+00 -3.4723576785343E-03  6.8294276151069E-02
   162  1.6100000000000E+00 -2.4794479578282E-03  4.8679737323017E-02
   163  1.6200000000000E+00 -1.6550541320716E-03  3.2326473912133E-02
   164  1.6300000000000E+00 -9.9586659133773E-04  1.9286026867348E-02
   165  1.6400000000000E+00 -5.0129919970527E-04  9.5939726824819E-03
   166  1.6500000000000E+00 -1.7122337802924E-04  3.2289477744349E-03
   167  1.6600000000000E+00 -1.8492436716492E-05  3.4204915756375E-04
   168  1.6700000000000E+00  3.5481404538207E-06 -6.5034979400697E-05
   169  1.6800000000000E+00 -1.1848930116891E-06  2.1927858614513E-05
   170  1.6900  0. -0.
   171  1.7000 -0.  0.
   172  1.7100  0.  0.
   173  1.7200  0.  0.
   174  1.7300  0.  0.
   175  1.7400  0.  0.
   176  1.7500  0.  0.
   177  1.7600  0.  0.
   178  1.7700  0.  0.
   179  1.7800  0.  0.
   180  1.7900  0.  0.
   181  1.8000  0.  0.
   182  1.8100  0.  0.
   183  1.8200  0.  0.
   184  1.8300  0.  0.
   185  1.8400  0.  0.
   186  1.8500  0.  0.
   187  1.8600  0.  0.
   188  1.8700  0.  0.
   189  1.8800  0.  0.
   190  1.8900  0.  0.
   191  1.9000  0.  0.
   192  1.9100  0.  0.
   193  1.9200  0.  0.
   194  1.9300  0.  0.
   195  1.9400  0.  0.
   196  1.9500  0.  0.
   197  1.9600  0.  0.
   198  1.9700  0.  0.
   199  1.9800  0.  0.
   200  1.9900  0.  0.
   201  2.0000  0.  0.
   202  2.0100  0.  0.
   203  2.0200  0.  0.
   204  2.0300  0.  0.
   205  2.0400  0.  0.
   206  2.0500  0.  0.
   207  2.0600  0.  0.
   208  2.0700  0.  0.
   209  2.0800  0.  0.
   210  2.0900  0.  0.
   211  2.1000  0.  0.
   212  2.1100  0.  0.
   213  2.1200  0.  0.
   214  2.1300  0.  0.
   215  2.1400  0.  0.
   216  2.1500  0.  0.
   217  2.1600  0.  0.
   218  2.1700  0.  0.
   219  2.1800  0.  0.
   220  2.1900  0.  0.
   221  2.2000  0.  0.
   222  2.2100  0.  0.
   223  2.2200  0.  0.
   224  2.2300  0.  0.
   225  2.2400  0.  0.
   226  2.2500  0.  0.
   227  2.2600  0.  0.
   228  2.2700  0.  0.
   229  2.2800  0.  0.
   230  2.2900  0.  0.
   231  2.3000  0.  0.
   232  2.3100  0.  0.
   233  2.3200  0.  0.
   234  2.3300  0.  0.
   235  2.3400  0.  0.
   236  2.3500  0.  0.
   237  2.3600  0.  0.
   238  2.3700  0.  0.
   239  2.3800  0.  0.
   240  2.3900  0.  0.
   241  2.4000  0.  0.
   242  2.4100  0.  0.
   243  2.4200  0.  0.
   244  2.4300  0.  0.
   245  2.4400  0.  0.
   246  2.4500  0.  0.
   247  2.4600  0.  0.
   248  2.4700  0.  0.
   249  2.4800  0.  0.
   250  2.4900  0.  0.
   251  2.5000  0.  0.
   252  2.5100  0.  0.
   253  2.5200  0.  0.
   254  2.5300  0.  0.
   255  2.5400  0.  0.
   256  2.5500  0.  0.
   257  2.5600  0.  0.
   258  2.5700  0.  0.
   259  2.5800  0.  0.
   260  2.5900  0.  0.
   261  2.6000  0.  0.
   262  2.6100  0.  0.
   263  2.6200  0.  0.
   264  2.6300  0.  0.
   265  2.6400  0.  0.
   266  2.6500  0.  0.
   267  2.6600  0.  0.
   268  2.6700  0.  0.
   269  2.6800  0.  0.
   270  2.6900  0.  0.
   271  2.7000  0.  0.
   272  2.7100  0.  0.
   273  2.7200  0.  0.
   274  2.7300  0.  0.
   275  2.7400  0.  0.
   276  2.7500  0.  0.
   277  2.7600  0.  0.
   278  2.7700  0.  0.
   279  2.7800  0.  0.
   280  2.7900  0.  0.
   281  2.8000  0.  0.
   282  2.8100  0.  0.
   283  2.8200  0.  0.
   284  2.8300  0.  0.
   285  2.8400  0.  0.
   286  2.8500  0.  0.
   287  2.8600  0.  0.
   288  2.8700  0.  0.
   289  2.8800  0.  0.
   290  2.8900  0.  0.
   291  2.9000  0.  0.
   292  2.9100  0.  0.
   293  2.9200  0.  0.
   294  2.9300  0.  0.
   295  2.9400  0.  0.
   296  2.9500  0.  0.
   297  2.9600  0.  0.
   298  2.9700  0.  0.
   299  2.9800  0.  0.
   300  2.9900  0.  0.
   301  3.0000  0.  0.
   302  3.0100  0.  0.
   303  3.0200  0.  0.
   304  3.0300  0.  0.
   305  3.0400  0.  0.
   306  3.0500  0.  0.
   307  3.0600  0.  0.
   308  3.0700  0.  0.
   309  3.0800  0.  0.
   310  3.0900  0.  0.
   311  3.1000  0.  0.
   312  3.1100  0.  0.
   313  3.1200  0.  0.
   314  3.1300  0.  0.
   315  3.1400  0.  0.
   316  3.1500  0.  0.
   317  3.1600  0.  0.
   318  3.1700  0.  0.
   319  3.1800  0.  0.
   320  3.1900  0.  0.
   321  3.2000  0.  0.
   322  3.2100  0.  0.
   323  3.2200  0.  0.
   324  3.2300  0.  0.
   325  3.2400  0.  0.
   326  3.2500  0.  0.
   327  3.2600  0.  0.
   328  3.2700  0.  0.
   329  3.2800  0.  0.
   330  3.2900  0.  0.
   331  3.3000  0.  0.
   332  3.3100  0.  0.
   333  3.3200  0.  0.
   334  3.3300  0.  0.
   335  3.3400  0.  0.
   336  3.3500  0.  0.
   337  3.3600  0.  0.
   338  3.3700  0.  0.
   339  3.3800  0.  0.
   340  3.3900  0.  0.
   341  3.4000  0.  0.
   342  3.4100  0.  0.
   343  3.4200  0.  0.
   344  3.4300  0.  0.
   345  3.4400  0.  0.
   346  3.4500  0.  0.
   347  3.4600  0.  0.
   348  3.4700  0.  0.
   349  3.4800  0.  0.
   350  3.4900  0.  0.
   351  3.5000  0.  0.
   352  3.5100  0.  0.
   353  3.5200  0.  0.
   354  3.5300  0.  0.
   355  3.5400  0.  0.
   356  3.5500  0.  0.
   357  3.5600  0.  0.
   358  3.5700  0.  0.
   359  3.5800  0.  0.
   360  3.5900  0.  0.
   361  3.6000  0.  0.
   362  3.6100  0.  0.
   363  3.6200  0.  0.
   364  3.6300  0.  0.
   365  3.6400  0.  0.
   366  3.6500  0.  0.
   367  3.6600  0.  0.
   368  3.6700  0.  0.
   369  3.6800  0.  0.
   370  3.6900  0.  0.
   371  3.7000  0.  0.
   372  3.7100  0.  0.
   373  3.7200  0.  0.
   374  3.7300  0.  0.
   375  3.7400  0.  0.
   376  3.7500  0.  0.
   377  3.7600  0.  0.
   378  3.7700  0.  0.
   379  3.7800  0.  0.
   380  3.7900  0.  0.
   381  3.8000  0.  0.
   382  3.8100  0.  0.
   383  3.8200  0.  0.
   384  3.8300  0.  0.
   385  3.8400  0.  0.
   386  3.8500  0.  0.
   387  3.8600  0.  0.
   388  3.8700  0.  0.
   389  3.8800  0.  0.
   390  3.8900  0.  0.
   391  3.9000  0.  0.
   392  3.9100  0.  0.
   393  3.9200  0.  0.
   394  3.9300  0.  0.
   395  3.9400  0.  0.
   396  3.9500  0.  0.
   397  3.9600  0.  0.
   398  3.9700  0.  0.
   399  3.9800  0.  0.
   400  3.9900  0.  0.
   401  4.0000  0.  0.
   402  4.0100  0.  0.
   403  4.0200  0.  0.
   404  4.0300  0.  0.
   405  4.0400  0.  0.
   406  4.0500  0.  0.
   407  4.0600  0.  0.
   408  4.0700  0.  0.
   409  4.0800  0.  0.
   410  4.0900  0.  0.
   411  4.1000  0.  0.
   412  4.1100  0.  0.
   413  4.1200  0.  0.
   414  4.1300  0.  0.
   415  4.1400  0.  0.
   416  4.1500  0.  0.
   417  4.1600  0.  0.
   418  4.1700  0.  0.
   419  4.1800  0.  0.
   420  4.1900  0.  0.
   421  4.2000  0.  0.
   422  4.2100  0.  0.
   423  4.2200  0.  0.
   424  4.2300  0.  0.
   425  4.2400  0.  0.
   426  4.2500  0.  0.
   427  4.2600  0.  0.
   428  4.2700  0.  0.
   429  4.2800  0.  0.
   430  4.2900  0.  0.
   431  4.3000  0.  0.
   432  4.3100  0.  0.
   433  4.3200  0.  0.
   434  4.3300  0.  0.
   435  4.3400  0.  0.
   436  4.3500  0.  0.
   437  4.3600  0.  0.
   438  4.3700  0.  0.
   439  4.3800  0.  0.
   440  4.3900  0.  0.
   441  4.4000  0.  0.
   442  4.4100  0.  0.
   443  4.4200  0.  0.
   444  4.4300  0.  0.
   445  4.4400  0.  0.
   446  4.4500  0.  0.
   447  4.4600  0.  0.
   448  4.4700  0.  0.
   449  4.4800  0.  0.
   450  4.4900  0.  0.
   451  4.5000  0.  0.
   452  4.5100  0.  0.
   453  4.5200  0.  0.
   454  4.5300  0.  0.
   455  4.5400  0.  0.
   456  4.5500  0.  0.
   457  4.5600  0.  0.
   458  4.5700  0.  0.
   459  4.5800  0.  0.
   460  4.5900  0.  0.
   461  4.6000  0.  0.
   462  4.6100  0.  0.
   463  4.6200  0.  0.
   464  4.6300  0.  0.
   465  4.6400  0.  0.
   466  4.6500  0.  0.
   467  4.6600  0.  0.
   468  4.6700  0.  0.
   469  4.6800  0.  0.
   470  4.6900  0.  0.
   471  4.7000  0.  0.
   472  4.7100  0.  0.
   473  4.7200  0.  0.
   474  4.7300  0.  0.
   475  4.7400  0.  0.
   476  4.7500  0.  0.
   477  4.7600  0.  0.
   478  4.7700  0.  0.
   479  4.7800  0.  0.
   480  4.7900  0.  0.
   481  4.8000  0.  0.
   482  4.8100  0.  0.
   483  4.8200  0.  0.
   484  4.8300  0.  0.
   485  4.8400  0.  0.
   486  4.8500  0.  0.
   487  4.8600  0.  0.
   488  4.8700  0.  0.
   489  4.8800  0.  0.
   490  4.8900  0.  0.
   491  4.9000  0.  0.
   492  4.9100  0.  0.
   493  4.9200  0.  0.
   494  4.9300  0.  0.
   495  4.9400  0.  0.
   496  4.9500  0.  0.
   497  4.9600  0.  0.
   498  4.9700  0.  0.
   499  4.9800  0.  0.
   500  4.9900  0.  0.
   501  5.0000  0.  0.
   502  5.0100  0.  0.
   503  5.0200  0.  0.
   504  5.0300  0.  0.
   505  5.0400  0.  0.
   506  5.0500  0.  0.
   507  5.0600  0.  0.
   508  5.0700  0.  0.
   509  5.0800  0.  0.
   510  5.0900  0.  0.
   511  5.1000  0.  0.
   512  5.1100  0.  0.
   513  5.1200  0.  0.
   514  5.1300  0.  0.
   515  5.1400  0.  0.
   516  5.1500  0.  0.
   517  5.1600  0.  0.
   518  5.1700  0.  0.
   519  5.1800  0.  0.
   520  5.1900  0.  0.
   521  5.2000  0.  0.
   522  5.2100  0.  0.
   523  5.2200  0.  0.
   524  5.2300  0.  0.
   525  5.2400  0.  0.
   526  5.2500  0.  0.
   527  5.2600  0.  0.
   528  5.2700  0.  0.
   529  5.2800  0.  0.
   530  5.2900  0.  0.
   531  5.3000  0.  0.
   532  5.3100  0.  0.
   533  5.3200  0.  0.
   534  5.3300  0.  0.
   535  5.3400  0.  0.
   536  5.3500  0.  0.
   537  5.3600  0.  0.
   538  5.3700  0.  0.
   539  5.3800  0.  0.
   540  5.3900  0.  0.
   541  5.4000  0.  0.
   542  5.4100  0.  0.
   543  5.4200  0.  0.
   544  5.4300  0.  0.
   545  5.4400  0.  0.
   546  5.4500  0.  0.
   547  5.4600  0.  0.
   548  5.4700  0.  0.
   549  5.4800  0.  0.
   550  5.4900  0.  0.
   551  5.5000  0.  0.
   552  5.5100  0.  0.
   553  5.5200  0.  0.
   554  5.5300  0.  0.
   555  5.5400  0.  0.
   556  5.5500  0.  0.
   557  5.5600  0.  0.
   558  5.5700  0.  0.
   559  5.5800  0.  0.
   560  5.5900  0.  0.
   561  5.6000  0.  0.
   562  5.6100  0.  0.
   563  5.6200  0.  0.
   564  5.6300  0.  0.
   565  5.6400  0.  0.
   566  5.6500  0.  0.
   567  5.6600  0.  0.
   568  5.6700  0.  0.
   569  5.6800  0.  0.
   570  5.6900  0.  0.
   571  5.7000  0.  0.
   572  5.7100  0.  0.
   573  5.7200  0.  0.
   574  5.7300  0.  0.
   575  5.7400  0.  0.
   576  5.7500  0.  0.
   577  5.7600  0.  0.
   578  5.7700  0.  0.
   579  5.7800  0.  0.
   580  5.7900  0.  0.
   581  5.8000  0.  0.
   582  5.8100  0.  0.
   583  5.8200  0.  0.
   584  5.8300  0.  0.
   585  5.8400  0.  0.
   586  5.8500  0.  0.
   587  5.8600  0.  0.
   588  5.8700  0.  0.
   589  5.8800  0.  0.
   590  5.8900  0.  0.
   591  5.9000  0.  0.
   592  5.9100  0.  0.
   593  5.9200  0.  0.
   594  5.9300  0.  0.
   595  5.9400  0.  0.
   596  5.9500  0.  0.
   597  5.9600  0.  0.
   598  5.9700  0.  0.
   599  5.9800  0.  0.
   600  5.9900  0.  0.
   1                        -1.3579656632550E+00 -4.6964977418102E-01
     1  0.0000000000000E+00  3.1319751826742E-10 -1.5339987782630E-09
     2  1.0000000000000E-02  1.7927592340618E-04 -1.8934321801348E-05
     3  2.0000000000000E-02  7.1761074847108E-04 -7.4407913986056E-05
     4  3.0000000000000E-02  1.6165302664650E-03 -1.6247652735314E-04
     5  4.0000000000000E-02  2.8785927015870E-03 -2.7671176361395E-04
     6  5.0000000000000E-02  4.5074109295138E-03 -4.0841601945380E-04
     7  6.0000000000000E-02  6.5076823166361E-03 -5.4691729918098E-04
     8  7.0000000000000E-02  8.8852249419425E-03 -6.7993791142422E-04
     9  8.0000000000000E-02  1.1647018650317E-02 -7.9402953134109E-04
    10  9.0000000000000E-02  1.4801249102251E-02 -8.7506570362637E-04
    11  1.0000000000000E-01  1.8357352736312E-02 -9.0878160814969E-04
    12  1.1000000000000E-01  2.2326060352087E-02 -8.8134983027363E-04
    13  1.2000000000000E-01  2.6719436857134E-02 -7.7997999179649E-04
    14  1.3000000000000E-01  3.1550914605407E-02 -5.9352942187872E-04
    15  1.4000000000000E-01  3.6835317689418E-02 -3.1311159230528E-04
    16  1.5000000000000E-01  4.2588874536300E-02  6.7311181183777E-05
    17  1.6000000000000E-01  4.8829216199932E-02  5.5036425657833E-04
    18  1.7000000000000E-01  5.5575357837713E-02  1.1347396344831E-03
    19  1.8000000000000E-01  6.2847661010901E-02  1.8147301216564E-03
    20  1.9000000000000E-01  7.0667774650022E-02  2.5798307127515E-03
    21  2.0000000000000E-01  7.9058552779376E-02  3.4144182731828E-03
    22  2.1000000000000E-01  8.8043947393842E-02  4.2975194575677E-03
    23  2.2000000000000E-01  9.7648875223046E-02  5.2026754585249E-03
    24  2.3000000000000E-01  1.0789905749751E-01  6.0979106703431E-03
    25  2.4000000000000E-01  1.1882083224340E-01  6.9458106929231E-03
    26  2.5000000000000E-01  1.3044093907057E-01  7.7037133196416E-03
    27  2.6000000000000E-01  1.4278627687661E-01  8.3240142758215E-03
    28  2.7000000000000E-01  1.5588363535962E-01  8.7545875313353E-03
    29  2.8000000000000E-01  1.6975940170863E-01  8.9393180325161E-03
    30  2.9000000000000E-01  1.8443924431332E-01  8.8187427164899E-03
    31  3.0000000000000E-01  1.9994777579880E-01  8.3307937173333E-03
    32  3.1000000000000E-01  2.1630819813664E-01  7.4116357794279E-03
    33  3.2000000000000E-01  2.3354193300467E-01  5.9965880911308E-03
    34  3.3000000000000E-01  2.5166824095667E-01  4.0211190707093E-03
    35  3.4000000000000E-01  2.7070383331297E-01  1.4219011054003E-03
    36  3.5000000000000E-01  2.9066248098742E-01 -1.8620891097900E-03
    37  3.6000000000000E-01  3.1155462471959E-01 -5.8884401409877E-03
    38  3.7000000000000E-01  3.3338699137799E-01 -1.0710161731177E-02
    39  3.8000000000000E-01  3.5616222113727E-01 -1.6374544193753E-02
    40  3.9000000000000E-01  3.7987851040446E-01 -2.2922038852371E-02
    41  4.0000000000000E-01  4.0452927537580E-01 -3.0385177267489E-02
    42  4.1000000000000E-01  4.3010284104370E-01 -3.8787546890133E-02
    43  4.2000000000000E-01  4.5658216034209E-01 -4.8142840408561E-02
    44  4.3000000000000E-01  4.8394456791964E-01 -5.8453995405729E-02
    45  4.4000000000000E-01  5.1216157276360E-01 -6.9712440029984E-02
    46  4.5000000000000E-01  5.4119869356610E-01 -8.1897459208765E-02
    47  4.6000000000000E-01  5.7101534033255E-01 -9.4975694518809E-02
    48  4.7000000000000E-01  6.0156474528260E-01 -1.0890078918486E-01
    49  4.8000000000000E-01  6.3279394559318E-01 -1.2361318783325E-01
    50  4.9000000000000E-01  6.6464381998687E-01 -1.3904009860266E-01
    51  5.0000000000000E-01  6.9704918058348E-01 -1.5509562303926E-01
    52  5.1000000000000E-01  7.2993892081624E-01 -1.7168105690859E-01
    53  5.2000000000000E-01  7.6323621957430E-01 -1.8868536267428E-01
    54  5.3000000000000E-01  7.9685880107851E-01 -2.0598581195965E-01
    55  5.4000000000000E-01  8.3071924933700E-01 -2.2344879385691E-01
    56  5.5000000000000E-01  8.6472537536977E-01 -2.4093078251834E-01
    57  5.6000000000000E-01  8.9878063474581E-01 -2.5827945508953E-01
    58  5.7000000000000E-01  9.3278459235242E-01 -2.7533494876463E-01
    59  5.8000000000000E-01  9.6663343072217E-01 -2.9193124359119E-01
    60  5.9000000000000E-01  1.0002204976870E+00 -3.0789765566281E-01
    61  6.0000000000000E-01  1.0334368886206E+00 -3.2306042354301E-01
    62  6.1000000000000E-01  1.0661720580740E+00 -3.3724436919192E-01
    63  6.2000000000000E-01  1.0983144552164E+00 -3.5027461334615E-01
    64  6.3000000000000E-01  1.1297521771657E+00 -3.6197832425346E-01
    65  6.4000000000000E-01  1.1603736340367E+00 -3.7218647790673E-01
    66  6.5000000000000E-01  1.1900682193569E+00 -3.8073560747133E-01
    67  6.6000000000000E-01  1.2187269794005E+00 -3.8746951946641E-01
    68  6.7000000000000E-01  1.2462432749693E+00 -3.9224095444956E-01
    69  6.8000000000000E-01  1.2725134292169E+00 -3.9491317046722E-01
    70  6.9000000000000E-01  1.2974373552526E+00 -3.9536142836466E-01
    71  7.0000000000000E-01  1.3209191574905E+00 -3.9347435919312E-01
    72  7.1000000000000E-01  1.3428677010111E+00 -3.8915519539133E-01
    73  7.2000000000000E-01  1.3631971435766E+00 -3.8232284913798E-01
    74  7.3000000000000E-01  1.3818274253916E+00 -3.7291282324762E-01
    75  7.4000000000000E-01  1.3986847122055E+00 -3.6087794218752E-01
    76  7.5000000000000E-01  1.4137017879212E+00 -3.4618889319798E-01
    77  7.6000000000000E-01  1.4268183934852E+00 -3.2883457006873E-01
    78  7.7000000000000E-01  1.4379815094934E+00 -3.0882221482326E-01
    79  7.8000000000000E-01  1.4471455806265E+00 -2.8617735535172E-01
    80  7.9000000000000E-01  1.4542726807415E+00 -2.6094353987151E-01
    81  8.0000000000000E-01  1.4593326181612E+00 -2.3318187194001E-01
    82  8.1000000000000E-01  1.4623029814273E+00 -2.0297035255436E-01
    83  8.2000000000000E-01  1.4631691264934E+00 -1.7040303860582E-01
    84  8.3000000000000E-01  1.4619241070289E+00 -1.3558902957048E-01
    85  8.4000000000000E-01  1.4585685501714E+00 -9.8651296771944E-02
    86  8.5000000000000E-01  1.4531104806927E+00 -5.9725371808620E-02
    87  8.6000000000000E-01  1.4455650971242E+00 -1.8957912762466E-02
    88  8.7000000000000E-01  1.4359545039146E+00  2.3494831436971E-02
    89  8.8000000000000E-01  1.4243074041570E+00  6.7468636654691E-02
    90  8.9000000000000E-01  1.4106587578145E+00  1.1279297621578E-01
    91  9.0000000000000E-01  1.3950494106968E+00  1.5929272680574E-01
    92  9.1000000000000E-01  1.3775256996774E+00  2.0678988336468E-01
    93  9.2000000000000E-01  1.3581390398015E+00  2.5510525864650E-01
    94  9.3000000000000E-01  1.3369454990050E+00  3.0406014339364E-01
    95  9.4000000000000E-01  1.3140053661558E+00  3.5347790372456E-01
    96  9.5000000000000E-01  1.2893827180288E+00  4.0318549333763E-01
    97  9.6000000000000E-01  1.2631449906448E+00  4.5301485948910E-01
    98  9.7000000000000E-01  1.2353625601444E+00  5.0280422338668E-01
    99  9.8000000000000E-01  1.2061083380288E+00  5.5239921763137E-01
   100  9.9000000000000E-01  1.1754573851904E+00  6.0165386560901E-01
   101  1.0000000000000E+00  1.1434865486869E+00  6.5043139024975E-01
   102  1.0100000000000E+00  1.1102741246795E+00  6.9860484229969E-01
   103  1.0200000000000E+00  1.0758995503810E+00  7.4605754114441E-01
   104  1.0300000000000E+00  1.0404431272426E+00  7.9268332424641E-01
   105  1.0400000000000E+00  1.0039857769593E+00  8.3838660436397E-01
   106  1.0500000000000E+00  9.6660883121399E-01  8.8308223685491E-01
   107  1.0600000000000E+00  9.2839385540068E-01  9.2669520249405E-01
   108  1.0700000000000E+00  8.8942250590042E-01  9.6916011429608E-01
   109  1.0800000000000E+00  8.4977641982322E-01  1.0104205597833E+00
   110  1.0900000000000E+00  8.0953713549476E-01  1.0504282929377E+00
   111  1.1000000000000E+00  7.6878604136698E-01  1.0891422926649E+00