Mn    ONCVPSP-4.0.1  r_core=   1.84404   2.30089   1.77903
     25.0000     15.0000      210704    zatom,zion,pspd
     8      11   2     4   600     0    pspcod,pspxc,lmax,lloc,mmax,r2well
  5.99000000  4.00000000  0.00000000    rchrg fchrg qchrg
     2     2     2     0     0    nproj
     1     1           extension_switch
   0                         3.1432916287581E+00 -1.4616363727734E-01
     1  0.0000000000000E+00 -2.8922197969905E-11 -5.5341842220002E-11
     2  1.0000000000000E-02  7.8379219369368E-02  4.0459516891291E-02
     3  2.0000000000000E-02  1.5655863855056E-01  8.0763530967209E-02
     4  3.0000000000000E-02  2.3433907920059E-01  1.2075728618980E-01
     5  4.0000000000000E-02  3.1152260451730E-01  1.6028751662896E-01
     6  5.0000000000000E-02  3.8791313464322E-01  1.9920318291277E-01
     7  6.0000000000000E-02  4.6331705564983E-01  2.3735619839241E-01
     8  7.0000000000000E-02  5.3754381999633E-01  2.7460214165793E-01
     9  8.0000000000000E-02  6.1040653638574E-01  3.1080095209636E-01
    10  9.0000000000000E-02  6.8172254697722E-01  3.4581760525281E-01
    11  1.0000000000000E-01  7.5131398995672E-01  3.7952276483727E-01
    12  1.1000000000000E-01  8.1900834551784E-01  4.1179340831584E-01
    13  1.2000000000000E-01  8.8463896336151E-01  4.4251342313374E-01
    14  1.3000000000000E-01  9.4804556988695E-01  4.7157417073894E-01
    15  1.4000000000000E-01  1.0090747533158E+00  4.9887501570980E-01
    16  1.5000000000000E-01  1.0675804250683E+00  5.2432381743588E-01
    17  1.6000000000000E-01  1.1234242557916E+00  5.4783738195990E-01
    18  1.7000000000000E-01  1.1764760845312E+00  5.6934187175782E-01
    19  1.8000000000000E-01  1.2266142996276E+00  5.8877317141512E-01
    20  1.9000000000000E-01  1.2737261900214E+00  6.0607720734774E-01
    21  2.0000000000000E-01  1.3177082657560E+00  6.2121021991748E-01
    22  2.1000000000000E-01  1.3584665465739E+00  6.3413898650096E-01
    23  2.2000000000000E-01  1.3959168176189E+00  6.4484099429035E-01
    24  2.3000000000000E-01  1.4299848513741E+00  6.5330456182980E-01
    25  2.4000000000000E-01  1.4606065950879E+00  6.5952890852490E-01
    26  2.5000000000000E-01  1.4877283230657E+00  6.6352417160136E-01
    27  2.6000000000000E-01  1.5113067533339E+00  6.6531137023387E-01
    28  2.7000000000000E-01  1.5313091283131E+00  6.6492231681417E-01
    29  2.8000000000000E-01  1.5477132592725E+00  6.6239947557901E-01
    30  2.9000000000000E-01  1.5605075344704E+00  6.5779576907227E-01
    31  3.0000000000000E-01  1.5696908910238E+00  6.5117433316986E-01
    32  3.1000000000000E-01  1.5752727506847E+00  6.4260822165010E-01
    33  3.2000000000000E-01  1.5772729198401E+00  6.3218006154462E-01
    34  3.3000000000000E-01  1.5757214541862E+00  6.1998166075457E-01
    35  3.4000000000000E-01  1.5706584886664E+00  6.0611356966234E-01
    36  3.5000000000000E-01  1.5621340333917E+00  5.9068459870901E-01
    37  3.6000000000000E-01  1.5502077363998E+00  5.7381129414063E-01
    38  3.7000000000000E-01  1.5349486142317E+00  5.5561737435190E-01
    39  3.8000000000000E-01  1.5164347514370E+00  5.3623312947099E-01
    40  3.9000000000000E-01  1.4947529702343E+00  5.1579478703385E-01
    41  4.0000000000000E-01  1.4699984716773E+00  4.9444384678887E-01
    42  4.1000000000000E-01  1.4422744497828E+00  4.7232638785198E-01
    43  4.2000000000000E-01  1.4116916801904E+00  4.4959235159638E-01
    44  4.3000000000000E-01  1.3783680850181E+00  4.2639480380943E-01
    45  4.4000000000000E-01  1.3424282756779E+00  4.0288917978107E-01
    46  4.5000000000000E-01  1.3040030754981E+00  3.7923251610099E-01
    47  4.6000000000000E-01  1.2632290240815E+00  3.5558267303635E-01
    48  4.7000000000000E-01  1.2202478653978E+00  3.3209755143617E-01
    49  4.8000000000000E-01  1.1752060216738E+00  3.0893430816168E-01
    50  4.9000000000000E-01  1.1282540551977E+00  2.8624857407476E-01
    51  5.0000000000000E-01  1.0795461201985E+00  2.6419367862616E-01
    52  5.1000000000000E-01  1.0292394069987E+00  2.4291988507320E-01
    53  5.2000000000000E-01  9.7749358066310E-01  2.2257364032172E-01
    54  5.3000000000000E-01  9.2447021638295E-01  2.0329684332933E-01
    55  5.4000000000000E-01  8.7033223384002E-01  1.8522613592605E-01
    56  5.5000000000000E-01  8.1524333279218E-01  1.6849221980523E-01
    57  5.6000000000000E-01  7.5936743210628E-01  1.5321920331188E-01
    58  5.7000000000000E-01  7.0286811444029E-01  1.3952398150741E-01
    59  5.8000000000000E-01  6.4590807874148E-01  1.2751565282050E-01
    60  5.9000000000000E-01  5.8864860268277E-01  1.1729497540468E-01
    61  6.0000000000000E-01  5.3124901710457E-01  1.0895386611220E-01
    62  6.1000000000000E-01  4.7386619446521E-01  1.0257494476697E-01
    63  6.2000000000000E-01  4.1665405322933E-01  9.8231126172711E-02
    64  6.3000000000000E-01  3.5976308004111E-01  9.5985262030759E-02
    65  6.4000000000000E-01  3.0333987143783E-01  9.5889834666145E-02
    66  6.5000000000000E-01  2.4752669675993E-01  9.7986704169827E-02
    67  6.6000000000000E-01  1.9246108380690E-01  1.0230691026597E-01
    68  6.7000000000000E-01  1.3827542867391E-01  1.0887052990121E-01
    69  6.8000000000000E-01  8.5096631083840E-02  1.1768659123634E-01
    70  6.9000000000000E-01  3.3045756402517E-02  1.2875304439686E-01
    71  7.0000000000000E-01 -1.7762274606327E-02  1.4205678901264E-01
    72  7.1000000000000E-01 -6.7218967366303E-02  1.5757375824811E-01
    73  7.2000000000000E-01 -1.1522250563353E-01  1.7526905869783E-01
    74  7.3000000000000E-01 -1.6167797356432E-01  1.9509716519754E-01
    75  7.4000000000000E-01 -2.0649754721321E-01  2.1700216928165E-01
    76  7.5000000000000E-01 -2.4960065511548E-01  2.4091807970647E-01
    77  7.6000000000000E-01 -2.9091410775572E-01  2.6676917315609E-01
    78  7.7000000000000E-01 -3.3037219587048E-01  2.9447039295698E-01
    79  7.8000000000000E-01 -3.6791675767955E-01  3.2392779335037E-01
    80  7.9000000000000E-01 -4.0349721528365E-01  3.5503902660975E-01
    81  8.0000000000000E-01 -4.3707058060853E-01  3.8769387004716E-01
    82  8.1000000000000E-01 -4.6860143141291E-01  4.2177478972615E-01
    83  8.2000000000000E-01 -4.9806185801166E-01  4.5715753749649E-01
    84  8.3000000000000E-01 -5.2543138149468E-01  4.9371177778278E-01
    85  8.4000000000000E-01 -5.5069684434493E-01  5.3130174040192E-01
    86  8.5000000000000E-01 -5.7385227447636E-01  5.6978689555105E-01
    87  8.6000000000000E-01 -5.9489872382220E-01  6.0902264699997E-01
    88  8.7000000000000E-01 -6.1384408270705E-01  6.4886103944207E-01
    89  8.8000000000000E-01 -6.3070287133052E-01  6.8915147590448E-01
    90  8.9000000000000E-01 -6.4549600977610E-01  7.2974144109240E-01
    91  9.0000000000000E-01 -6.5825056803652E-01  7.7047722654628E-01
    92  9.1000000000000E-01 -6.6899949761398E-01  8.1120465352028E-01
    93  9.2000000000000E-01 -6.7778134631252E-01  8.5176978955025E-01
    94  9.3000000000000E-01 -6.8463995788753E-01  8.9201965476518E-01
    95  9.4000000000000E-01 -6.8962415825620E-01  9.3180291411002E-01
    96  9.5000000000000E-01 -6.9278743000048E-01  9.7097055178725E-01
    97  9.6000000000000E-01 -6.9418757691238E-01  1.0093765243896E+00
    98  9.7000000000000E-01 -6.9388638033905E-01  1.0468783893853E+00
    99  9.8000000000000E-01 -6.9194924908288E-01  1.0833379058303E+00
   100  9.9000000000000E-01 -6.8844486459955E-01  1.1186216044124E+00
   101  1.0000000000000E+00 -6.8344482321510E-01  1.1526013241892E+00
   102  1.0100000000000E+00 -6.7702327705155E-01  1.1851547136482E+00
   103  1.0200000000000E+00 -6.6925657531014E-01  1.2161656940076E+00
   104  1.0300000000000E+00 -6.6022290751201E-01  1.2455248829737E+00
   105  1.0400000000000E+00 -6.5000195023838E-01  1.2731299774851E+00
   106  1.0500000000000E+00 -6.3867451884739E-01  1.2988860942945E+00
   107  1.0600000000000E+00 -6.2632222557149E-01  1.3227060675654E+00
   108  1.0700000000000E+00 -6.1302714532075E-01  1.3445107029993E+00
   109  1.0800000000000E+00 -5.9887149043142E-01  1.3642289883364E+00
   110  1.0900000000000E+00 -5.8393729550889E-01  1.3817982604168E+00
   111  1.1000000000000E+00 -5.6830611341846E-01  1.3971643293136E+00
   112  1.1100000000000E+00 -5.5205872337794E-01  1.4102815603836E+00
   113  1.1200000000000E+00 -5.3527485200330E-01  1.4211129153955E+00
   114  1.1300000000000E+00 -5.1803290805339E-01  1.4296299542111E+00
   115  1.1400000000000E+00 -5.0040973151248E-01  1.4358127987894E+00
   116  1.1500000000000E+00 -4.8248035754110E-01  1.4396500615709E+00
   117  1.1600000000000E+00 -4.6431779571731E-01  1.4411387405648E+00
   118  1.1700000000000E+00 -4.4599282488198E-01  1.4402840837161E+00
   119  1.1800000000000E+00 -4.2757380379505E-01  1.4370994253555E+00
   120  1.1900000000000E+00 -4.0912649770370E-01  1.4316059977478E+00
   121  1.2000000000000E+00 -3.9071392082147E-01  1.4238327209398E+00
   122  1.2100000000000E+00 -3.7239619461663E-01  1.4138159742695E+00
   123  1.2200000000000E+00 -3.5423042171280E-01  1.4015993530384E+00
   124  1.2300000000000E+00 -3.3627057511271E-01  1.3872334139564E+00
   125  1.2400000000000E+00 -3.1856740236896E-01  1.3707754130563E+00
   126  1.2500000000000E+00 -3.0116834424438E-01  1.3522890398281E+00
   127  1.2600000000000E+00 -2.8411746732821E-01  1.3318441513572E+00
   128  1.2700000000000E+00 -2.6745541000471E-01  1.3095165102473E+00
   129  1.2800000000000E+00 -2.5121934110765E-01  1.2853875300875E+00
   130  1.2900000000000E+00 -2.3544293053719E-01  1.2595440321658E+00
   131  1.3000000000000E+00 -2.2015633106632E-01  1.2320780170549E+00
   132  1.3100000000000E+00 -2.0538617052146E-01  1.2030864545886E+00
   133  1.3200000000000E+00 -1.9115555348662E-01  1.1726710956152E+00
   134  1.3300000000000E+00 -1.7748407165264E-01  1.1409383087623E+00
   135  1.3400000000000E+00 -1.6438782191263E-01  1.1079989452658E+00
   136  1.3500000000000E+00 -1.5187943129125E-01  1.0739682347211E+00
   137  1.3600000000000E+00 -1.3996808778965E-01  1.0389657143911E+00
   138  1.3700000000000E+00 -1.2865957622874E-01  1.0031151944724E+00
   139  1.3800000000000E+00 -1.1795631818130E-01  9.6654476146552E-01
   140  1.3900000000000E+00 -1.0785741509786E-01  9.2938682152772E-01
   141  1.4000000000000E+00 -9.8358693751861E-02  8.9177818540794E-01
   142  1.4100000000000E+00 -8.9452752963723E-02  8.5386019846112E-01
   143  1.4200000000000E+00 -8.1129013744874E-02  8.1577888218589E-01
   144  1.4300000000000E+00 -7.3373756601690E-02  7.7768527142546E-01
   145  1.4400000000000E+00 -6.6170431201727E-02  7.3973257580893E-01
   146  1.4500000000000E+00 -5.9500569567759E-02  7.0206682665467E-01
   147  1.4600000000000E+00 -5.3344353725133E-02  6.6482261572009E-01
   148  1.4700000000000E+00 -4.7680822263308E-02  6.2812332923513E-01
   149  1.4800000000000E+00 -4.2488080563701E-02  5.9208126310251E-01
   150  1.4900000000000E+00 -3.7743498162656E-02  5.5679782268120E-01
   151  1.5000000000000E+00 -3.3423896777691E-02  5.2236375605613E-01
   152  1.5100000000000E+00 -2.9505728573568E-02  4.8885942135864E-01
   153  1.5200000000000E+00 -2.5965244389402E-02  4.5635508726598E-01
   154  1.5300000000000E+00 -2.2778651744188E-02  4.2491126521209E-01
   155  1.5400000000000E+00 -1.9922262504068E-02  3.9457907161964E-01
   156  1.5500000000000E+00 -1.7372630167780E-02  3.6540061817670E-01
   157  1.5600000000000E+00 -1.5106676781361E-02  3.3740942806928E-01
   158  1.5700000000000E+00 -1.3101809540187E-02  3.1063087602665E-01
   159  1.5800000000000E+00 -1.1336027217004E-02  2.8508264964576E-01
   160  1.5900000000000E+00 -9.7880165847269E-03  2.6077522954786E-01
   161  1.6000000000000E+00 -8.4372390537268E-03  2.3771238578270E-01
   162  1.6100000000000E+00 -7.2640078080657E-03  2.1589168761836E-01
   163  1.6200000000000E+00 -6.2495557363366E-03  1.9530502405931E-01
   164  1.6300000000000E+00 -5.3760945205482E-03  1.7593913209320E-01
   165  1.6400000000000E+00 -4.6268652494165E-03  1.5777612990134E-01
   166  1.6500000000000E+00 -3.9861809874425E-03  1.4079405192302E-01
   167  1.6600000000000E+00 -3.4394617206942E-03  1.2496738296992E-01
   168  1.6700000000000E+00 -2.9732621425200E-03  1.1026758840490E-01
   169  1.6800000000000E+00 -2.5752927637858E-03  9.6663637387557E-02
   170  1.6900000000000E+00 -2.2344348218074E-03  8.4122516423907E-02
   171  1.7000000000000E+00 -1.9407494939835E-03  7.2609730314065E-02
   172  1.7100000000000E+00 -1.6854819175912E-03  6.2089787738488E-02
   173  1.7200000000000E+00 -1.4610598118370E-03  5.2526678191791E-02
   174  1.7300000000000E+00 -1.2610944189248E-03  4.3884243482798E-02
   175  1.7400000000000E+00 -1.0803538315900E-03  3.6126824860647E-02
   176  1.7500000000000E+00 -9.1478127650519E-04  2.9219341838269E-02
   177  1.7600000000000E+00 -7.6206661644292E-04  2.3119600992426E-02
   178  1.7700000000000E+00 -6.2122986804144E-04  1.7783273571994E-02
   179  1.7800000000000E+00 -4.9085759500765E-04  1.3188114157049E-02
   180  1.7900000000000E+00 -3.7081508934538E-04  9.3123383571643E-03
   181  1.8000000000000E+00 -2.6216589064646E-04  6.1353169979318E-03
   182  1.8100000000000E+00 -1.6714410179531E-04  3.6376622001755E-03
   183  1.8200000000000E+00 -8.9147954226095E-05  1.8020080284528E-03
   184  1.8300000000000E+00 -3.2255264410307E-05  6.0604576353646E-04
   185  1.8400000000000E+00 -3.9418460851420E-06  6.8360262377800E-05
   186  1.8500000000000E+00  9.8633206195074E-07 -1.6457764318732E-05
   187  1.8600000000000E+00 -3.1983326185567E-07  5.5485476041672E-06
   188  1.87  0. -0.
   189  1.88 -0. -0.
   190  1.89  0.  0.
   191  1.90  0.  0.
   192  1.91  0.  0.
   193  1.92  0.  0.
   194  1.93  0.  0.
   195  1.94  0.  0.
   196  1.95  0.  0.
   197  1.96  0.  0.
   198  1.97  0.  0.
   199  1.98  0.  0.
   200  1.99  0.  0.
   201  2.00  0.  0.
   202  2.01  0.  0.
   203  2.02  0.  0.
   204  2.03  0.  0.
   205  2.04  0.  0.
   206  2.05  0.  0.
   207  2.06  0.  0.
   208  2.07  0.  0.
   209  2.08  0.  0.
   210  2.09  0.  0.
   211  2.10  0.  0.
   212  2.11  0.  0.
   213  2.12  0.  0.
   214  2.13  0.  0.
   215  2.14  0.  0.
   216  2.15  0.  0.
   217  2.16  0.  0.
   218  2.17  0.  0.
   219  2.18  0.  0.
   220  2.19  0.  0.
   221  2.20  0.  0.
   222  2.21  0.  0.
   223  2.22  0.  0.
   224  2.23  0.  0.
   225  2.24  0.  0.
   226  2.25  0.  0.
   227  2.26  0.  0.
   228  2.27  0.  0.
   229  2.28  0.  0.
   230  2.29  0.  0.
   231  2.30  0.  0.
   232  2.31  0.  0.
   233  2.32  0.  0.
   234  2.33  0.  0.
   235  2.34  0.  0.
   236  2.35  0.  0.
   237  2.36  0.  0.
   238  2.37  0.  0.
   239  2.38  0.  0.
   240  2.39  0.  0.
   241  2.40  0.  0.
   242  2.41  0.  0.
   243  2.42  0.  0.
   244  2.43  0.  0.
   245  2.44  0.  0.
   246  2.45  0.  0.
   247  2.46  0.  0.
   248  2.47  0.  0.
   249  2.48  0.  0.
   250  2.49  0.  0.
   251  2.50  0.  0.
   252  2.51  0.  0.
   253  2.52  0.  0.
   254  2.53  0.  0.
   255  2.54  0.  0.
   256  2.55  0.  0.
   257  2.56  0.  0.
   258  2.57  0.  0.
   259  2.58  0.  0.
   260  2.59  0.  0.
   261  2.60  0.  0.
   262  2.61  0.  0.
   263  2.62  0.  0.
   264  2.63  0.  0.
   265  2.64  0.  0.
   266  2.65  0.  0.
   267  2.66  0.  0.
   268  2.67  0.  0.
   269  2.68  0.  0.
   270  2.69  0.  0.
   271  2.70  0.  0.
   272  2.71  0.  0.
   273  2.72  0.  0.
   274  2.73  0.  0.
   275  2.74  0.  0.
   276  2.75  0.  0.
   277  2.76  0.  0.
   278  2.77  0.  0.
   279  2.78  0.  0.
   280  2.79  0.  0.
   281  2.80  0.  0.
   282  2.81  0.  0.
   283  2.82  0.  0.
   284  2.83  0.  0.
   285  2.84  0.  0.
   286  2.85  0.  0.
   287  2.86  0.  0.
   288  2.87  0.  0.
   289  2.88  0.  0.
   290  2.89  0.  0.
   291  2.90  0.  0.
   292  2.91  0.  0.
   293  2.92  0.  0.
   294  2.93  0.  0.
   295  2.94  0.  0.
   296  2.95  0.  0.
   297  2.96  0.  0.
   298  2.97  0.  0.
   299  2.98  0.  0.
   300  2.99  0.  0.
   301  3.00  0.  0.
   302  3.01  0.  0.
   303  3.02  0.  0.
   304  3.03  0.  0.
   305  3.04  0.  0.
   306  3.05  0.  0.
   307  3.06  0.  0.
   308  3.07  0.  0.
   309  3.08  0.  0.
   310  3.09  0.  0.
   311  3.10  0.  0.
   312  3.11  0.  0.
   313  3.12  0.  0.
   314  3.13  0.  0.
   315  3.14  0.  0.
   316  3.15  0.  0.
   317  3.16  0.  0.
   318  3.17  0.  0.
   319  3.18  0.  0.
   320  3.19  0.  0.
   321  3.20  0.  0.
   322  3.21  0.  0.
   323  3.22  0.  0.
   324  3.23  0.  0.
   325  3.24  0.  0.
   326  3.25  0.  0.
   327  3.26  0.  0.
   328  3.27  0.  0.
   329  3.28  0.  0.
   330  3.29  0.  0.
   331  3.30  0.  0.
   332  3.31  0.  0.
   333  3.32  0.  0.
   334  3.33  0.  0.
   335  3.34  0.  0.
   336  3.35  0.  0.
   337  3.36  0.  0.
   338  3.37  0.  0.
   339  3.38  0.  0.
   340  3.39  0.  0.
   341  3.40  0.  0.
   342  3.41  0.  0.
   343  3.42  0.  0.
   344  3.43  0.  0.
   345  3.44  0.  0.
   346  3.45  0.  0.
   347  3.46  0.  0.
   348  3.47  0.  0.
   349  3.48  0.  0.
   350  3.49  0.  0.
   351  3.50  0.  0.
   352  3.51  0.  0.
   353  3.52  0.  0.
   354  3.53  0.  0.
   355  3.54  0.  0.
   356  3.55  0.  0.
   357  3.56  0.  0.
   358  3.57  0.  0.
   359  3.58  0.  0.
   360  3.59  0.  0.
   361  3.60  0.  0.
   362  3.61  0.  0.
   363  3.62  0.  0.
   364  3.63  0.  0.
   365  3.64  0.  0.
   366  3.65  0.  0.
   367  3.66  0.  0.
   368  3.67  0.  0.
   369  3.68  0.  0.
   370  3.69  0.  0.
   371  3.70  0.  0.
   372  3.71  0.  0.
   373  3.72  0.  0.
   374  3.73  0.  0.
   375  3.74  0.  0.
   376  3.75  0.  0.
   377  3.76  0.  0.
   378  3.77  0.  0.
   379  3.78  0.  0.
   380  3.79  0.  0.
   381  3.80  0.  0.
   382  3.81  0.  0.
   383  3.82  0.  0.
   384  3.83  0.  0.
   385  3.84  0.  0.
   386  3.85  0.  0.
   387  3.86  0.  0.
   388  3.87  0.  0.
   389  3.88  0.  0.
   390  3.89  0.  0.
   391  3.90  0.  0.
   392  3.91  0.  0.
   393  3.92  0.  0.
   394  3.93  0.  0.
   395  3.94  0.  0.
   396  3.95  0.  0.
   397  3.96  0.  0.
   398  3.97  0.  0.
   399  3.98  0.  0.
   400  3.99  0.  0.
   401  4.00  0.  0.
   402  4.01  0.  0.
   403  4.02  0.  0.
   404  4.03  0.  0.
   405  4.04  0.  0.
   406  4.05  0.  0.
   407  4.06  0.  0.
   408  4.07  0.  0.
   409  4.08  0.  0.
   410  4.09  0.  0.
   411  4.10  0.  0.
   412  4.11  0.  0.
   413  4.12  0.  0.
   414  4.13  0.  0.
   415  4.14  0.  0.
   416  4.15  0.  0.
   417  4.16  0.  0.
   418  4.17  0.  0.
   419  4.18  0.  0.
   420  4.19  0.  0.
   421  4.20  0.  0.
   422  4.21  0.  0.
   423  4.22  0.  0.
   424  4.23  0.  0.
   425  4.24  0.  0.
   426  4.25  0.  0.
   427  4.26  0.  0.
   428  4.27  0.  0.
   429  4.28  0.  0.
   430  4.29  0.  0.
   431  4.30  0.  0.
   432  4.31  0.  0.
   433  4.32  0.  0.
   434  4.33  0.  0.
   435  4.34  0.  0.
   436  4.35  0.  0.
   437  4.36  0.  0.
   438  4.37  0.  0.
   439  4.38  0.  0.
   440  4.39  0.  0.
   441  4.40  0.  0.
   442  4.41  0.  0.
   443  4.42  0.  0.
   444  4.43  0.  0.
   445  4.44  0.  0.
   446  4.45  0.  0.
   447  4.46  0.  0.
   448  4.47  0.  0.
   449  4.48  0.  0.
   450  4.49  0.  0.
   451  4.50  0.  0.
   452  4.51  0.  0.
   453  4.52  0.  0.
   454  4.53  0.  0.
   455  4.54  0.  0.
   456  4.55  0.  0.
   457  4.56  0.  0.
   458  4.57  0.  0.
   459  4.58  0.  0.
   460  4.59  0.  0.
   461  4.60  0.  0.
   462  4.61  0.  0.
   463  4.62  0.  0.
   464  4.63  0.  0.
   465  4.64  0.  0.
   466  4.65  0.  0.
   467  4.66  0.  0.
   468  4.67  0.  0.
   469  4.68  0.  0.
   470  4.69  0.  0.
   471  4.70  0.  0.
   472  4.71  0.  0.
   473  4.72  0.  0.
   474  4.73  0.  0.
   475  4.74  0.  0.
   476  4.75  0.  0.
   477  4.76  0.  0.
   478  4.77  0.  0.
   479  4.78  0.  0.
   480  4.79  0.  0.
   481  4.80  0.  0.
   482  4.81  0.  0.
   483  4.82  0.  0.
   484  4.83  0.  0.
   485  4.84  0.  0.
   486  4.85  0.  0.
   487  4.86  0.  0.
   488  4.87  0.  0.
   489  4.88  0.  0.
   490  4.89  0.  0.
   491  4.90  0.  0.
   492  4.91  0.  0.
   493  4.92  0.  0.
   494  4.93  0.  0.
   495  4.94  0.  0.
   496  4.95  0.  0.
   497  4.96  0.  0.
   498  4.97  0.  0.
   499  4.98  0.  0.
   500  4.99  0.  0.
   501  5.00  0.  0.
   502  5.01  0.  0.
   503  5.02  0.  0.
   504  5.03  0.  0.
   505  5.04  0.  0.
   506  5.05  0.  0.
   507  5.06  0.  0.
   508  5.07  0.  0.
   509  5.08  0.  0.
   510  5.09  0.  0.
   511  5.10  0.  0.
   512  5.11  0.  0.
   513  5.12  0.  0.
   514  5.13  0.  0.
   515  5.14  0.  0.
   516  5.15  0.  0.
   517  5.16  0.  0.
   518  5.17  0.  0.
   519  5.18  0.  0.
   520  5.19  0.  0.
   521  5.20  0.  0.
   522  5.21  0.  0.
   523  5.22  0.  0.
   524  5.23  0.  0.
   525  5.24  0.  0.
   526  5.25  0.  0.
   527  5.26  0.  0.
   528  5.27  0.  0.
   529  5.28  0.  0.
   530  5.29  0.  0.
   531  5.30  0.  0.
   532  5.31  0.  0.
   533  5.32  0.  0.
   534  5.33  0.  0.
   535  5.34  0.  0.
   536  5.35  0.  0.
   537  5.36  0.  0.
   538  5.37  0.  0.
   539  5.38  0.  0.
   540  5.39  0.  0.
   541  5.40  0.  0.
   542  5.41  0.  0.
   543  5.42  0.  0.
   544  5.43  0.  0.
   545  5.44  0.  0.
   546  5.45  0.  0.
   547  5.46  0.  0.
   548  5.47  0.  0.
   549  5.48  0.  0.
   550  5.49  0.  0.
   551  5.50  0.  0.
   552  5.51  0.  0.
   553  5.52  0.  0.
   554  5.53  0.  0.
   555  5.54  0.  0.
   556  5.55  0.  0.
   557  5.56  0.  0.
   558  5.57  0.  0.
   559  5.58  0.  0.
   560  5.59  0.  0.
   561  5.60  0.  0.
   562  5.61  0.  0.
   563  5.62  0.  0.
   564  5.63  0.  0.
   565  5.64  0.  0.
   566  5.65  0.  0.
   567  5.66  0.  0.
   568  5.67  0.  0.
   569  5.68  0.  0.
   570  5.69  0.  0.
   571  5.70  0.  0.
   572  5.71  0.  0.
   573  5.72  0.  0.
   574  5.73  0.  0.
   575  5.74  0.  0.
   576  5.75  0.  0.
   577  5.76  0.  0.
   578  5.77  0.  0.
   579  5.78  0.  0.
   580  5.79  0.  0.
   581  5.80  0.  0.
   582  5.81  0.  0.
   583  5.82  0.  0.
   584  5.83  0.  0.
   585  5.84  0.  0.
   586  5.85  0.  0.
   587  5.86  0.  0.
   588  5.87  0.  0.
   589  5.88  0.  0.
   590  5.89  0.  0.
   591  5.90  0.  0.
   592  5.91  0.  0.
   593  5.92  0.  0.
   594  5.93  0.  0.
   595  5.94  0.  0.
   596  5.95  0.  0.
   597  5.96  0.  0.
   598  5.97  0.  0.
   599  5.98  0.  0.
   600  5.99  0.  0.
   1                        -1.7045963719549E+00 -5.2163622548825E-01
     1  0.0000000000000E+00 -9.2797651507492E-11  1.5852627544000E-10
     2  1.0000000000000E-02  4.5443178738718E-04 -2.8049902462469E-04
     3  2.0000000000000E-02  1.8178202063714E-03 -1.1220863548248E-03
     4  3.0000000000000E-02  4.0904383340609E-03 -2.5250240568441E-03
     5  4.0000000000000E-02  7.2727210368432E-03 -4.4897199825246E-03
     6  5.0000000000000E-02  1.1365234748620E-02 -7.0166846758239E-03
     7  6.0000000000000E-02  1.6368635501951E-02 -1.0106471628209E-02
     8  7.0000000000000E-02  2.2283615550910E-02 -1.3759601463392E-02
     9  8.0000000000000E-02  2.9110839017256E-02 -1.7976470790390E-02
    10  9.0000000000000E-02  3.6850867081320E-02 -2.2757246615567E-02
    11  1.0000000000000E-01  4.5504073325239E-02 -2.8101747349879E-02
    12  1.1000000000000E-01  5.5070549918288E-02 -3.4009311584334E-02
    13  1.2000000000000E-01  6.5550005411231E-02 -4.0478655934451E-02
    14  1.3000000000000E-01  7.6941654978771E-02 -4.7507723371935E-02
    15  1.4000000000000E-01  8.9244104015302E-02 -5.5093523568000E-02
    16  1.5000000000000E-01  1.0245522604922E-01 -6.3231966866808E-02
    17  1.6000000000000E-01  1.1657203599435E-01 -7.1917693588801E-02
    18  1.7000000000000E-01  1.3159055980335E-01 -8.1143900431339E-02
    19  1.8000000000000E-01  1.4750570162689E-01 -9.0902165787754E-02
    20  1.9000000000000E-01  1.6431110961368E-01 -1.0118227584485E-01
    21  2.0000000000000E-01  1.8199904150989E-01 -1.1197205334312E-01
    22  2.1000000000000E-01  2.0056023123186E-01 -1.2325719089287E-01
    23  2.2000000000000E-01  2.1998375759332E-01 -1.3502109073303E-01
    24  2.3000000000000E-01  2.4025691636726E-01 -1.4724471279808E-01
    25  2.4000000000000E-01  2.6136509685347E-01 -1.5990643292142E-01
    26  2.5000000000000E-01  2.8329166410544E-01 -1.7298191295185E-01
    27  2.6000000000000E-01  3.0601784794469E-01 -1.8644398449349E-01
    28  2.7000000000000E-01  3.2952263985742E-01 -2.0026254789880E-01
    29  2.8000000000000E-01  3.5378269882708E-01 -2.1440448804996E-01
    30  2.9000000000000E-01  3.7877226710811E-01 -2.2883360835680E-01
    31  3.0000000000000E-01  4.0446309689027E-01 -2.4351058427983E-01
    32  3.1000000000000E-01  4.3082438874042E-01 -2.5839293755609E-01
    33  3.2000000000000E-01  4.5782274263997E-01 -2.7343503216392E-01
    34  3.3000000000000E-01  4.8542212236117E-01 -2.8858809291231E-01
    35  3.4000000000000E-01  5.1358383384522E-01 -3.0380024738080E-01
    36  3.5000000000000E-01  5.4226651815995E-01 -3.1901659176970E-01
    37  3.6000000000000E-01  5.7142615952509E-01 -3.3417928104781E-01
    38  3.7000000000000E-01  6.0101610879997E-01 -3.4922764360765E-01
    39  3.8000000000000E-01  6.3098712273161E-01 -3.6409832045714E-01
    40  3.9000000000000E-01  6.6128741916192E-01 -3.7872542879406E-01
    41  4.0000000000000E-01  6.9186274829202E-01 -3.9304074962574E-01
    42  4.1000000000000E-01  7.2265647999858E-01 -4.0697393891279E-01
    43  4.2000000000000E-01  7.5360970709472E-01 -4.2045276153490E-01
    44  4.3000000000000E-01  7.8466136432464E-01 -4.3340334719780E-01
    45  4.4000000000000E-01  8.1574836277889E-01 -4.4575046722713E-01
    46  4.5000000000000E-01  8.4680573931672E-01 -4.5741783102681E-01
    47  4.6000000000000E-01  8.7776682048251E-01 -4.6832840081848E-01
    48  4.7000000000000E-01  9.0856340030770E-01 -4.7840472312596E-01
    49  4.8000000000000E-01  9.3912593129645E-01 -4.8756927532495E-01
    50  4.9000000000000E-01  9.6938372780438E-01 -4.9574482544559E-01
    51  5.0000000000000E-01  9.9926518093532E-01 -5.0285480329345E-01
    52  5.1000000000000E-01  1.0286979840014E+00 -5.0882368084570E-01
    53  5.2000000000000E-01  1.0576093675181E+00 -5.1357735978263E-01
    54  5.3000000000000E-01  1.0859263426373E+00 -5.1704356393300E-01
    55  5.4000000000000E-01  1.1135759518612E+00 -5.1915223434361E-01
    56  5.5000000000000E-01  1.1404855258228E+00 -5.1983592463125E-01
    57  5.6000000000000E-01  1.1665829448748E+00 -5.1903019423773E-01
    58  5.7000000000000E-01  1.1917969041843E+00 -5.1667399718804E-01
    59  5.8000000000000E-01  1.2160571810027E+00 -5.1271006394583E-01
    60  5.9000000000000E-01  1.2392949027519E+00 -5.0708527397183E-01
    61  6.0000000000000E-01  1.2614428145546E+00 -4.9975101661779E-01
    62  6.1000000000000E-01  1.2824355448270E+00 -4.9066353803130E-01
    63  6.2000000000000E-01  1.3022098675518E+00 -4.7978427180606E-01
    64  6.3000000000000E-01  1.3207049598588E+00 -4.6708015118612E-01
    65  6.4000000000000E-01  1.3378626535562E+00 -4.5252390072141E-01
    66  6.5000000000000E-01  1.3536276792811E+00 -4.3609430537615E-01
    67  6.6000000000000E-01  1.3679479019678E+00 -4.1777645520781E-01
    68  6.7000000000000E-01  1.3807745463761E+00 -3.9756196386529E-01
    69  6.8000000000000E-01  1.3920624114664E+00 -3.7544915929642E-01
    70  6.9000000000000E-01  1.4017700724646E+00 -3.5144324520848E-01
    71  7.0000000000000E-01  1.4098600695197E+00 -3.2555643198862E-01
    72  7.1000000000000E-01  1.4162990819282E+00 -2.9780803596364E-01
    73  7.2000000000000E-01  1.4210580869685E+00 -2.6822454605828E-01
    74  7.3000000000000E-01  1.4241125024713E+00 -2.3683965709895E-01
    75  7.4000000000000E-01  1.4254423123360E+00 -2.0369426920112E-01
    76  7.5000000000000E-01  1.4250321742892E+00 -1.6883645287584E-01
    77  7.6000000000000E-01  1.4228715092778E+00 -1.3232137968967E-01
    78  7.7000000000000E-01  1.4189545719825E+00 -9.4211218513115E-02
    79  7.8000000000000E-01  1.4132805020376E+00 -5.4574997593653E-02
    80  7.9000000000000E-01  1.4058533556434E+00 -1.3488432888844E-02
    81  8.0000000000000E-01  1.3966821173611E+00  2.8966276707683E-02
    82  8.1000000000000E-01  1.3857806919810E+00  7.2700686421470E-02
    83  8.2000000000000E-01  1.3731678764625E+00  1.1762037391946E-01
    84  8.3000000000000E-01  1.3588673120435E+00  1.6362523770381E-01
    85  8.4000000000000E-01  1.3429074167223E+00  2.1060982420713E-01
    86  8.5000000000000E-01  1.3253212984145E+00  2.5846368205439E-01
    87  8.6000000000000E-01  1.3061466491866E+00  3.0707174180067E-01
    88  8.7000000000000E-01  1.2854256210636E+00  3.5631471930988E-01
    89  8.8000000000000E-01  1.2632046840015E+00  4.0606954080672E-01
    90  8.9000000000000E-01  1.2395344667019E+00  4.5620978751397E-01
    91  9.0000000000000E-01  1.2144695810352E+00  5.0660615768112E-01
    92  9.1000000000000E-01  1.1880684309113E+00  5.5712694371783E-01
    93  9.2000000000000E-01  1.1603930065204E+00  6.0763852206821E-01
    94  9.3000000000000E-01  1.1315086649246E+00  6.5800585340007E-01
    95  9.4000000000000E-01  1.1014838980543E+00  7.0809299063622E-01
    96  9.5000000000000E-01  1.0703900892106E+00  7.5776359232510E-01
    97  9.6000000000000E-01  1.0383012592307E+00  8.0688143883300E-01
    98  9.7000000000000E-01  1.0052938035130E+00  8.5531094884247E-01
    99  9.8000000000000E-01  9.7144622113550E-01  9.0291769365956E-01
   100  9.9000000000000E-01  9.3683883732771E-01  9.4956890686614E-01
   101  1.0000000000000E+00  9.0155352058005E-01  9.9513398690444E-01
   102  1.0100000000000E+00  8.6567339568540E-01  1.0394849902454E+00
   103  1.0200000000000E+00  8.2928255401528E-01  1.0824971128737E+00
   104  1.0300000000000E+00  7.9246576233097E-01  1.1240491579156E+00
   105  1.0400000000000E+00  7.5530817142160E-01  1.1640239873478E+00
   106  1.0500000000000E+00  7.1789502584487E-01  1.2023089558421E+00
   107  1.0600000000000E+00  6.8031137602334E-01  1.2387963249393E+00
   108  1.0700000000000E+00  6.4264179391930E-01  1.2733836558898E+00
   109  1.0800000000000E+00  6.0497009347443E-01  1.3059741796512E+00
   110  1.0900000000000E+00  5.6737905695814E-01  1.3364771427028E+00