Fe    ONCVPSP-4.0.1  r_core=   2.02252   2.50854   2.49358
     26.0000     16.0000      210714    zatom,zion,pspd
     8      11   2     4   600     0    pspcod,pspxc,lmax,lloc,mmax,r2well
  5.99000000  3.00000000  0.00000000    rchrg fchrg qchrg
     2     2     2     0     0    nproj
     1     1           extension_switch
   0                        -2.2201920195494E+00  1.0086512936311E+00
     1  0.0000000000000E+00 -4.7686299353700E-12  9.6147478867437E-11
     2  1.0000000000000E-02  3.4249615644583E-02  5.8203639653412E-02
     3  2.0000000000000E-02  6.8472436792101E-02  1.1627136197429E-01
     4  3.0000000000000E-02  1.0264169990120E-01  1.7406744666692E-01
     5  4.0000000000000E-02  1.3673070322902E-01  2.3145656884909E-01
     6  5.0000000000000E-02  1.7071283744939E-01  2.8830400008363E-01
     7  6.0000000000000E-02  2.0456161593716E-01  3.4447581333059E-01
     8  7.0000000000000E-02  2.3825070461306E-01  3.9983909301251E-01
     9  8.0000000000000E-02  2.7175395124824E-01  4.5426215128928E-01
    10  9.0000000000000E-02  3.0504541413355E-01  5.0761475152046E-01
    11  1.0000000000000E-01  3.3809939002539E-01  5.5976833975505E-01
    12  1.1000000000000E-01  3.7089044128789E-01  6.1059628493070E-01
    13  1.2000000000000E-01  4.0339342215967E-01  6.5997412829070E-01
    14  1.3000000000000E-01  4.3558350408316E-01  7.0777984233782E-01
    15  1.4000000000000E-01  4.6743620004401E-01  7.5389409944272E-01
    16  1.5000000000000E-01  4.9892738787910E-01  7.9820055001345E-01
    17  1.6000000000000E-01  5.3003333252217E-01  8.4058610991359E-01
    18  1.7000000000000E-01  5.6073070716781E-01  8.8094125659336E-01
    19  1.8000000000000E-01  5.9099661334507E-01  9.1916033317260E-01
    20  1.9000000000000E-01  6.2080859990396E-01  9.5514185949031E-01
    21  2.0000000000000E-01  6.5014468092879E-01  9.8878884891482E-01
    22  2.1000000000000E-01  6.7898335260309E-01  1.0200091294949E+00
    23  2.2000000000000E-01  7.0730360906158E-01  1.0487156678277E+00
    24  2.3000000000000E-01  7.3508495727409E-01  1.0748268938267E+00
    25  2.4000000000000E-01  7.6230743101560E-01  1.0982670243959E+00
    26  2.5000000000000E-01  7.8895160398518E-01  1.1189663838557E+00
    27  2.6000000000000E-01  8.1499860214355E-01  1.1368617188255E+00
    28  2.7000000000000E-01  8.4043011534581E-01  1.1518965051465E+00
    29  2.8000000000000E-01  8.6522840835110E-01  1.1640212443371E+00
    30  2.9000000000000E-01  8.8937633129498E-01  1.1731937469967E+00
    31  3.0000000000000E-01  9.1285732971347E-01  1.1793794005333E+00
    32  3.1000000000000E-01  9.3565545420922E-01  1.1825514185728E+00
    33  3.2000000000000E-01  9.5775536985046E-01  1.1826910694185E+00
    34  3.3000000000000E-01  9.7914236539274E-01  1.1797878809695E+00
    35  3.4000000000000E-01  9.9980236241068E-01  1.1738398195799E+00
    36  3.5000000000000E-01  1.0197219244236E+00  1.1648534404330E+00
    37  3.6000000000000E-01  1.0388882660937E+00  1.1528440071383E+00
    38  3.7000000000000E-01  1.0572892625693E+00  1.1378355784089E+00
    39  3.8000000000000E-01  1.0749134590378E+00  1.1198610598614E+00
    40  3.9000000000000E-01  1.0917500805458E+00  1.0989622191866E+00
    41  4.0000000000000E-01  1.1077890421312E+00  1.0751896631683E+00
    42  4.1000000000000E-01  1.1230209593059E+00  1.0486027752833E+00
    43  4.2000000000000E-01  1.1374371589111E+00  1.0192696128837E+00
    44  4.3000000000000E-01  1.1510296903596E+00  9.8726676325482E-01
    45  4.4000000000000E-01  1.1637913372641E+00  9.5267915814451E-01
    46  4.5000000000000E-01  1.1757156294375E+00  9.1559984667461E-01
    47  4.6000000000000E-01  1.1867968552389E+00  8.7612972687067E-01
    48  4.7000000000000E-01  1.1970300742241E+00  8.3437723637474E-01
    49  4.8000000000000E-01  1.2064111300461E+00  7.9045800323945E-01
    50  4.9000000000000E-01  1.2149366635375E+00  7.4449445803193E-01
    51  5.0000000000000E-01  1.2226041258946E+00  6.9661540880443E-01
    52  5.1000000000000E-01  1.2294117918676E+00  6.4695558080821E-01
    53  5.2000000000000E-01  1.2353587728527E+00  5.9565512313625E-01
    54  5.3000000000000E-01  1.2404450297677E+00  5.4285908477647E-01
    55  5.4000000000000E-01  1.2446713855842E+00  4.8871686283540E-01
    56  5.5000000000000E-01  1.2480395373792E+00  4.3338162595102E-01
    57  5.6000000000000E-01  1.2505520677615E+00  3.7700971614954E-01
    58  5.7000000000000E-01  1.2522124555211E+00  3.1976003261245E-01
    59  5.8000000000000E-01  1.2530250853450E+00  2.6179340100267E-01
    60  5.9000000000000E-01  1.2529952564376E+00  2.0327193215302E-01
    61  6.0000000000000E-01  1.2521291898852E+00  1.4435837404292E-01
    62  6.1000000000000E-01  1.2504340345979E+00  8.5215461077573E-02
    63  6.2000000000000E-01  1.2479178716699E+00  2.6005264740546E-02
    64  6.3000000000000E-01  1.2445897169963E+00 -3.3111450290325E-02
    65  6.4000000000000E-01  1.2404595219935E+00 -9.1975860487959E-02
    66  6.5000000000000E-01  1.2355381722739E+00 -1.5043170425792E-01
    67  6.6000000000000E-01  1.2298374841351E+00 -2.0832588521924E-01
    68  6.7000000000000E-01  1.2233701987334E+00 -2.6550905416776E-01
    69  6.8000000000000E-01  1.2161499738225E+00 -3.2183616606112E-01
    70  6.9000000000000E-01  1.2081913729512E+00 -3.7716700855316E-01
    71  7.0000000000000E-01  1.1995098520284E+00 -4.3136669882459E-01
    72  7.1000000000000E-01  1.1901217431803E+00 -4.8430614570694E-01
    73  7.2000000000000E-01  1.1800442358391E+00 -5.3586247437183E-01
    74  7.3000000000000E-01  1.1692953550239E+00 -5.8591941115985E-01
    75  7.4000000000000E-01  1.1578939367907E+00 -6.3436762644532E-01
    76  7.5000000000000E-01  1.1458596008481E+00 -6.8110503377604E-01
    77  7.6000000000000E-01  1.1332127203583E+00 -7.2603704388413E-01
    78  7.7000000000000E-01  1.1199743889595E+00 -7.6907677253522E-01
    79  7.8000000000000E-01  1.1061663850701E+00 -8.1014520156126E-01
    80  7.9000000000000E-01  1.0918111335540E+00 -8.4917129280808E-01
    81  8.0000000000000E-01  1.0769316648468E+00 -8.8609205511392E-01
    82  8.1000000000000E-01  1.0615515716643E+00 -9.2085256481989E-01
    83  8.2000000000000E-01  1.0456949634336E+00 -9.5340594069134E-01
    84  8.3000000000000E-01  1.0293864186049E+00 -9.8371327449836E-01
    85  8.4000000000000E-01  1.0126509350224E+00 -1.0117435188592E+00
    86  8.5000000000000E-01  9.9551387854757E-01 -1.0374733342901E+00
    87  8.6000000000000E-01  9.7800093014370E-01 -1.0608868977245E+00
    88  8.7000000000000E-01  9.6013803164635E-01 -1.0819756750613E+00
    89  8.8000000000000E-01  9.4195133045470E-01 -1.1007381605722E+00
    90  8.9000000000000E-01  9.2346712339073E-01 -1.1171795862415E+00
    91  9.0000000000000E-01  9.0471179998171E-01 -1.1313116043224E+00
    92  9.1000000000000E-01  8.8571178542835E-01 -1.1431519465721E+00
    93  9.2000000000000E-01  8.6649348352578E-01 -1.1527240637723E+00
    94  9.3000000000000E-01  8.4708321980745E-01 -1.1600567492491E+00
    95  9.4000000000000E-01  8.2750718518253E-01 -1.1651837501771E+00
    96  9.5000000000000E-01  8.0779138033577E-01 -1.1681433704846E+00
    97  9.6000000000000E-01  7.8796156115534E-01 -1.1689780691723E+00
    98  9.7000000000000E-01  7.6804318544801E-01 -1.1677340578130E+00
    99  9.8000000000000E-01  7.4806136119303E-01 -1.1644609009222E+00
   100  9.9000000000000E-01  7.2804079657650E-01 -1.1592111227679E+00
   101  1.0000000000000E+00  7.0800575203522E-01 -1.1520398240390E+00
   102  1.0100000000000E+00  6.8797999452585E-01 -1.1430043116037E+00
   103  1.0200000000000E+00  6.6798675421919E-01 -1.1321637443708E+00
   104  1.0300000000000E+00  6.4804868380206E-01 -1.1195787980216E+00
   105  1.0400000000000E+00  6.2818782055086E-01 -1.1053113511036E+00
   106  1.0500000000000E+00  6.0842555132035E-01 -1.0894241946813E+00
   107  1.0600000000000E+00  5.8878258057051E-01 -1.0719807674196E+00
   108  1.0700000000000E+00  5.6927890153184E-01 -1.0530449176400E+00
   109  1.0800000000000E+00  5.4993377058683E-01 -1.0326806935404E+00
   110  1.0900000000000E+00  5.3076568492180E-01 -1.0109521624095E+00
   111  1.1000000000000E+00  5.1179236347981E-01 -9.8792325930155E-01
   112  1.1100000000000E+00  4.9303073122134E-01 -9.6365766526807E-01
   113  1.1200000000000E+00  4.7449690667594E-01 -9.3821871487935E-01
   114  1.1300000000000E+00  4.5620619274468E-01 -9.1166933240539E-01
   115  1.1400000000000E+00  4.3817307069041E-01 -8.8407199567639E-01
   116  1.1500000000000E+00  4.2041119723104E-01 -8.5548872630490E-01
   117  1.1600000000000E+00  4.0293340462979E-01 -8.2598110463044E-01
   118  1.1700000000000E+00  3.8575170365671E-01 -7.9561030744781E-01
   119  1.1800000000000E+00  3.6887728927713E-01 -7.6443716630285E-01
   120  1.1900000000000E+00  3.5232054890599E-01 -7.3252224389013E-01
   121  1.2000000000000E+00  3.3609107305122E-01 -6.9992592586652E-01
   122  1.2100000000000E+00  3.2019766815649E-01 -6.6670852520610E-01
   123  1.2200000000000E+00  3.0464837144143E-01 -6.3293039606768E-01
   124  1.2300000000000E+00  2.8945046752857E-01 -5.9865205402767E-01
   125  1.2400000000000E+00  2.7461050663823E-01 -5.6393429945010E-01
   126  1.2500000000000E+00  2.6013432412788E-01 -5.2883834072225E-01
   127  1.2600000000000E+00  2.4602706114920E-01 -4.9342591408039E-01
   128  1.2700000000000E+00  2.3229318619534E-01 -4.5775939678488E-01
   129  1.2800000000000E+00  2.1893651731243E-01 -4.2190191047761E-01
   130  1.2900000000000E+00  2.0596024475291E-01 -3.8591741166582E-01
   131  1.3000000000000E+00  1.9336695385415E-01 -3.4987076642532E-01
   132  1.3100000000000E+00  1.8115864793360E-01 -3.1382780660028E-01
   133  1.3200000000000E+00  1.6933677100163E-01 -2.7785536499393E-01
   134  1.3300000000000E+00  1.5790223010481E-01 -2.4202128729354E-01
   135  1.3400000000000E+00  1.4685541712592E-01 -2.0639441875142E-01
   136  1.3500000000000E+00  1.3619622988197E-01 -1.7104456394682E-01
   137  1.3600000000000E+00  1.2592409237781E-01 -1.3604241827955E-01
   138  1.3700000000000E+00  1.1603797409069E-01 -1.0145947019203E-01
   139  1.3800000000000E+00  1.0653640817979E-01 -6.7367873477590E-02
   140  1.3900000000000E+00  9.7417508534229E-02 -3.3840289404271E-02
   141  1.4000000000000E+00  8.8678985593160E-02 -9.4969876451801E-04
   142  1.4100000000000E+00  8.0318160892167E-02  3.1230815656954E-02
   143  1.4200000000000E+00  7.2331980310879E-02  6.2628315320764E-02
   144  1.4300000000000E+00  6.4717026017334E-02  9.3170279623278E-02
   145  1.4400000000000E+00  5.7469527125068E-02  1.2278490541835E-01
   146  1.4500000000000E+00  5.0585369098751E-02  1.5140143039450E-01
   147  1.4600000000000E+00  4.4060101963438E-02  1.7895047799434E-01
   148  1.4700000000000E+00  3.7888947390706E-02  2.0536442124577E-01
   149  1.4800000000000E+00  3.2066804752171E-02  2.3057776258455E-01
   150  1.4900000000000E+00  2.6588256246649E-02  2.5452752648402E-01
   151  1.5000000000000E+00  2.1447571221681E-02  2.7715366147618E-01
   152  1.5100000000000E+00  1.6638709822760E-02  2.9839944795174E-01
   153  1.5200000000000E+00  1.2155326114709E-02  3.1821190796489E-01
   154  1.5300000000000E+00  7.9907708285544E-03  3.3654221314860E-01
   155  1.5400000000000E+00  4.1380938944490E-03  3.5334608676313E-01
   156  1.5500000000000E+00  5.9004692609359E-04  3.6858419586292E-01
   157  1.5600000000000E+00 -2.6609141749965E-03  3.8222252956907E-01
   158  1.5700000000000E+00 -5.6226263263886E-03  3.9423275948236E-01
   159  1.5800000000000E+00 -8.3032159152579E-03  4.0459257836034E-01
   160  1.5900000000000E+00 -1.0711094828726E-02  4.1328601331516E-01
   161  1.6000000000000E+00 -1.2854955705965E-02  4.2030370996249E-01
   162  1.6100000000000E+00 -1.4743766261945E-02  4.2564318416592E-01
   163  1.6200000000000E+00 -1.6386762542551E-02  4.2930903827443E-01
   164  1.6300000000000E+00 -1.7793440982609E-02  4.3131313903938E-01
   165  1.6400000000000E+00 -1.8973549151877E-02  4.3167475471990E-01
   166  1.6500000000000E+00 -1.9937075089317E-02  4.3042064923966E-01
   167  1.6600000000000E+00 -2.0694235142509E-02  4.2758513163732E-01
   168  1.6700000000000E+00 -2.1255460247162E-02  4.2321005945922E-01
   169  1.6800000000000E+00 -2.1631380600604E-02  4.1734479516494E-01
   170  1.6900000000000E+00 -2.1832808703216E-02  4.1004611505781E-01
   171  1.7000000000000E+00 -2.1870720762336E-02  4.0137807070242E-01
   172  1.7100000000000E+00 -2.1756236474367E-02  3.9141180325001E-01
   173  1.7200000000000E+00 -2.1500597222103E-02  3.8022531155178E-01
   174  1.7300000000000E+00 -2.1115142745746E-02  3.6790317539908E-01
   175  1.7400000000000E+00 -2.0611286367188E-02  3.5453623567938E-01
   176  1.7500000000000E+00 -2.0000488867857E-02  3.4022123367676E-01
   177  1.7600000000000E+00 -1.9294231140471E-02  3.2506041216831E-01
   178  1.7700000000000E+00 -1.8503985754138E-02  3.0916108137115E-01
   179  1.7800000000000E+00 -1.7641187590305E-02  2.9263515317190E-01
   180  1.7900000000000E+00 -1.6717203723758E-02  2.7559864742094E-01
   181  1.8000000000000E+00 -1.5743302738083E-02  2.5817117439011E-01
   182  1.8100000000000E+00 -1.4730623713857E-02  2.4047539854363E-01
   183  1.8200000000000E+00 -1.3690145066271E-02  2.2263648737733E-01
   184  1.8300000000000E+00 -1.2632651983052E-02  2.0478151829910E-01
   185  1.8400000000000E+00 -1.1568711737604E-02  1.8703904497138E-01
   186  1.8500000000000E+00 -1.0508607519771E-02  1.6953774786781E-01
   187  1.8600000000000E+00 -9.4621782643702E-03  1.5240304408997E-01
   188  1.8700000000000E+00 -8.4386814444231E-03  1.3575423300966E-01
   189  1.8800000000000E+00 -7.4467580871666E-03  1.1970387354511E-01
   190  1.8900000000000E+00 -6.4943980902829E-03  1.0435715597470E-01
   191  1.9000000000000E+00 -5.5889089640661E-03  8.9811266775780E-02
   192  1.9100000000000E+00 -4.7368865402193E-03  7.6155023402895E-02
   193  1.9200000000000E+00 -3.9441865025636E-03  6.3467980550611E-02
   194  1.9300000000000E+00 -3.2159180439025E-03  5.1815666757583E-02
   195  1.9400000000000E+00 -2.5564240503398E-03  4.1252569382790E-02
   196  1.9500000000000E+00 -1.9692231679949E-03  3.1833301934052E-02
   197  1.9600000000000E+00 -1.4570008477900E-03  2.3600675346743E-02
   198  1.9700000000000E+00 -1.0216017081178E-03  1.6585857009141E-02
   199  1.9800000000000E+00 -6.6402406080857E-04  1.0808153636603E-02
   200  1.9900000000000E+00 -3.8450192669690E-04  6.2763421582906E-03
   201  2.0000000000000E+00 -1.8184684992849E-04  2.9777098005729E-03
   202  2.0100000000000E+00 -5.5361642642980E-05  9.0972377742057E-04
   203  2.0200000000000E+00 -4.2224876102801E-06  6.9700112304170E-05
   204  2.0300000000000E+00  1.9530284011904E-06 -3.2274719266574E-05
   205  2.0400000000000E+00 -7.5879406992876E-07  1.2507987425861E-05
   206  2.05  0. -0.
   207  2.06 -0.  0.
   208  2.07 -0.  0.
   209  2.08  0.  0.
   210  2.09  0.  0.
   211  2.10  0.  0.
   212  2.11  0.  0.
   213  2.12  0.  0.
   214  2.13  0.  0.
   215  2.14  0.  0.
   216  2.15  0.  0.
   217  2.16  0.  0.
   218  2.17  0.  0.
   219  2.18  0.  0.
   220  2.19  0.  0.
   221  2.20  0.  0.
   222  2.21  0.  0.
   223  2.22  0.  0.
   224  2.23  0.  0.
   225  2.24  0.  0.
   226  2.25  0.  0.
   227  2.26  0.  0.
   228  2.27  0.  0.
   229  2.28  0.  0.
   230  2.29  0.  0.
   231  2.30  0.  0.
   232  2.31  0.  0.
   233  2.32  0.  0.
   234  2.33  0.  0.
   235  2.34  0.  0.
   236  2.35  0.  0.
   237  2.36  0.  0.
   238  2.37  0.  0.
   239  2.38  0.  0.
   240  2.39  0.  0.
   241  2.40  0.  0.
   242  2.41  0.  0.
   243  2.42  0.  0.
   244  2.43  0.  0.
   245  2.44  0.  0.
   246  2.45  0.  0.
   247  2.46  0.  0.
   248  2.47  0.  0.
   249  2.48  0.  0.
   250  2.49  0.  0.
   251  2.50  0.  0.
   252  2.51  0.  0.
   253  2.52  0.  0.
   254  2.53  0.  0.
   255  2.54  0.  0.
   256  2.55  0.  0.
   257  2.56  0.  0.
   258  2.57  0.  0.
   259  2.58  0.  0.
   260  2.59  0.  0.
   261  2.60  0.  0.
   262  2.61  0.  0.
   263  2.62  0.  0.
   264  2.63  0.  0.
   265  2.64  0.  0.
   266  2.65  0.  0.
   267  2.66  0.  0.
   268  2.67  0.  0.
   269  2.68  0.  0.
   270  2.69  0.  0.
   271  2.70  0.  0.
   272  2.71  0.  0.
   273  2.72  0.  0.
   274  2.73  0.  0.
   275  2.74  0.  0.
   276  2.75  0.  0.
   277  2.76  0.  0.
   278  2.77  0.  0.
   279  2.78  0.  0.
   280  2.79  0.  0.
   281  2.80  0.  0.
   282  2.81  0.  0.
   283  2.82  0.  0.
   284  2.83  0.  0.
   285  2.84  0.  0.
   286  2.85  0.  0.
   287  2.86  0.  0.
   288  2.87  0.  0.
   289  2.88  0.  0.
   290  2.89  0.  0.
   291  2.90  0.  0.
   292  2.91  0.  0.
   293  2.92  0.  0.
   294  2.93  0.  0.
   295  2.94  0.  0.
   296  2.95  0.  0.
   297  2.96  0.  0.
   298  2.97  0.  0.
   299  2.98  0.  0.
   300  2.99  0.  0.
   301  3.00  0.  0.
   302  3.01  0.  0.
   303  3.02  0.  0.
   304  3.03  0.  0.
   305  3.04  0.  0.
   306  3.05  0.  0.
   307  3.06  0.  0.
   308  3.07  0.  0.
   309  3.08  0.  0.
   310  3.09  0.  0.
   311  3.10  0.  0.
   312  3.11  0.  0.
   313  3.12  0.  0.
   314  3.13  0.  0.
   315  3.14  0.  0.
   316  3.15  0.  0.
   317  3.16  0.  0.
   318  3.17  0.  0.
   319  3.18  0.  0.
   320  3.19  0.  0.
   321  3.20  0.  0.
   322  3.21  0.  0.
   323  3.22  0.  0.
   324  3.23  0.  0.
   325  3.24  0.  0.
   326  3.25  0.  0.
   327  3.26  0.  0.
   328  3.27  0.  0.
   329  3.28  0.  0.
   330  3.29  0.  0.
   331  3.30  0.  0.
   332  3.31  0.  0.
   333  3.32  0.  0.
   334  3.33  0.  0.
   335  3.34  0.  0.
   336  3.35  0.  0.
   337  3.36  0.  0.
   338  3.37  0.  0.
   339  3.38  0.  0.
   340  3.39  0.  0.
   341  3.40  0.  0.
   342  3.41  0.  0.
   343  3.42  0.  0.
   344  3.43  0.  0.
   345  3.44  0.  0.
   346  3.45  0.  0.
   347  3.46  0.  0.
   348  3.47  0.  0.
   349  3.48  0.  0.
   350  3.49  0.  0.
   351  3.50  0.  0.
   352  3.51  0.  0.
   353  3.52  0.  0.
   354  3.53  0.  0.
   355  3.54  0.  0.
   356  3.55  0.  0.
   357  3.56  0.  0.
   358  3.57  0.  0.
   359  3.58  0.  0.
   360  3.59  0.  0.
   361  3.60  0.  0.
   362  3.61  0.  0.
   363  3.62  0.  0.
   364  3.63  0.  0.
   365  3.64  0.  0.
   366  3.65  0.  0.
   367  3.66  0.  0.
   368  3.67  0.  0.
   369  3.68  0.  0.
   370  3.69  0.  0.
   371  3.70  0.  0.
   372  3.71  0.  0.
   373  3.72  0.  0.
   374  3.73  0.  0.
   375  3.74  0.  0.
   376  3.75  0.  0.
   377  3.76  0.  0.
   378  3.77  0.  0.
   379  3.78  0.  0.
   380  3.79  0.  0.
   381  3.80  0.  0.
   382  3.81  0.  0.
   383  3.82  0.  0.
   384  3.83  0.  0.
   385  3.84  0.  0.
   386  3.85  0.  0.
   387  3.86  0.  0.
   388  3.87  0.  0.
   389  3.88  0.  0.
   390  3.89  0.  0.
   391  3.90  0.  0.
   392  3.91  0.  0.
   393  3.92  0.  0.
   394  3.93  0.  0.
   395  3.94  0.  0.
   396  3.95  0.  0.
   397  3.96  0.  0.
   398  3.97  0.  0.
   399  3.98  0.  0.
   400  3.99  0.  0.
   401  4.00  0.  0.
   402  4.01  0.  0.
   403  4.02  0.  0.
   404  4.03  0.  0.
   405  4.04  0.  0.
   406  4.05  0.  0.
   407  4.06  0.  0.
   408  4.07  0.  0.
   409  4.08  0.  0.
   410  4.09  0.  0.
   411  4.10  0.  0.
   412  4.11  0.  0.
   413  4.12  0.  0.
   414  4.13  0.  0.
   415  4.14  0.  0.
   416  4.15  0.  0.
   417  4.16  0.  0.
   418  4.17  0.  0.
   419  4.18  0.  0.
   420  4.19  0.  0.
   421  4.20  0.  0.
   422  4.21  0.  0.
   423  4.22  0.  0.
   424  4.23  0.  0.
   425  4.24  0.  0.
   426  4.25  0.  0.
   427  4.26  0.  0.
   428  4.27  0.  0.
   429  4.28  0.  0.
   430  4.29  0.  0.
   431  4.30  0.  0.
   432  4.31  0.  0.
   433  4.32  0.  0.
   434  4.33  0.  0.
   435  4.34  0.  0.
   436  4.35  0.  0.
   437  4.36  0.  0.
   438  4.37  0.  0.
   439  4.38  0.  0.
   440  4.39  0.  0.
   441  4.40  0.  0.
   442  4.41  0.  0.
   443  4.42  0.  0.
   444  4.43  0.  0.
   445  4.44  0.  0.
   446  4.45  0.  0.
   447  4.46  0.  0.
   448  4.47  0.  0.
   449  4.48  0.  0.
   450  4.49  0.  0.
   451  4.50  0.  0.
   452  4.51  0.  0.
   453  4.52  0.  0.
   454  4.53  0.  0.
   455  4.54  0.  0.
   456  4.55  0.  0.
   457  4.56  0.  0.
   458  4.57  0.  0.
   459  4.58  0.  0.
   460  4.59  0.  0.
   461  4.60  0.  0.
   462  4.61  0.  0.
   463  4.62  0.  0.
   464  4.63  0.  0.
   465  4.64  0.  0.
   466  4.65  0.  0.
   467  4.66  0.  0.
   468  4.67  0.  0.
   469  4.68  0.  0.
   470  4.69  0.  0.
   471  4.70  0.  0.
   472  4.71  0.  0.
   473  4.72  0.  0.
   474  4.73  0.  0.
   475  4.74  0.  0.
   476  4.75  0.  0.
   477  4.76  0.  0.
   478  4.77  0.  0.
   479  4.78  0.  0.
   480  4.79  0.  0.
   481  4.80  0.  0.
   482  4.81  0.  0.
   483  4.82  0.  0.
   484  4.83  0.  0.
   485  4.84  0.  0.
   486  4.85  0.  0.
   487  4.86  0.  0.
   488  4.87  0.  0.
   489  4.88  0.  0.
   490  4.89  0.  0.
   491  4.90  0.  0.
   492  4.91  0.  0.
   493  4.92  0.  0.
   494  4.93  0.  0.
   495  4.94  0.  0.
   496  4.95  0.  0.
   497  4.96  0.  0.
   498  4.97  0.  0.
   499  4.98  0.  0.
   500  4.99  0.  0.
   501  5.00  0.  0.
   502  5.01  0.  0.
   503  5.02  0.  0.
   504  5.03  0.  0.
   505  5.04  0.  0.
   506  5.05  0.  0.
   507  5.06  0.  0.
   508  5.07  0.  0.
   509  5.08  0.  0.
   510  5.09  0.  0.
   511  5.10  0.  0.
   512  5.11  0.  0.
   513  5.12  0.  0.
   514  5.13  0.  0.
   515  5.14  0.  0.
   516  5.15  0.  0.
   517  5.16  0.  0.
   518  5.17  0.  0.
   519  5.18  0.  0.
   520  5.19  0.  0.
   521  5.20  0.  0.
   522  5.21  0.  0.
   523  5.22  0.  0.
   524  5.23  0.  0.
   525  5.24  0.  0.
   526  5.25  0.  0.
   527  5.26  0.  0.
   528  5.27  0.  0.
   529  5.28  0.  0.
   530  5.29  0.  0.
   531  5.30  0.  0.
   532  5.31  0.  0.
   533  5.32  0.  0.
   534  5.33  0.  0.
   535  5.34  0.  0.
   536  5.35  0.  0.
   537  5.36  0.  0.
   538  5.37  0.  0.
   539  5.38  0.  0.
   540  5.39  0.  0.
   541  5.40  0.  0.
   542  5.41  0.  0.
   543  5.42  0.  0.
   544  5.43  0.  0.
   545  5.44  0.  0.
   546  5.45  0.  0.
   547  5.46  0.  0.
   548  5.47  0.  0.
   549  5.48  0.  0.
   550  5.49  0.  0.
   551  5.50  0.  0.
   552  5.51  0.  0.
   553  5.52  0.  0.
   554  5.53  0.  0.
   555  5.54  0.  0.
   556  5.55  0.  0.
   557  5.56  0.  0.
   558  5.57  0.  0.
   559  5.58  0.  0.
   560  5.59  0.  0.
   561  5.60  0.  0.
   562  5.61  0.  0.
   563  5.62  0.  0.
   564  5.63  0.  0.
   565  5.64  0.  0.
   566  5.65  0.  0.
   567  5.66  0.  0.
   568  5.67  0.  0.
   569  5.68  0.  0.
   570  5.69  0.  0.
   571  5.70  0.  0.
   572  5.71  0.  0.
   573  5.72  0.  0.
   574  5.73  0.  0.
   575  5.74  0.  0.
   576  5.75  0.  0.
   577  5.76  0.  0.
   578  5.77  0.  0.
   579  5.78  0.  0.
   580  5.79  0.  0.
   581  5.80  0.  0.
   582  5.81  0.  0.
   583  5.82  0.  0.
   584  5.83  0.  0.
   585  5.84  0.  0.
   586  5.85  0.  0.
   587  5.86  0.  0.
   588  5.87  0.  0.
   589  5.88  0.  0.
   590  5.89  0.  0.
   591  5.90  0.  0.
   592  5.91  0.  0.
   593  5.92  0.  0.
   594  5.93  0.  0.
   595  5.94  0.  0.
   596  5.95  0.  0.
   597  5.96  0.  0.
   598  5.97  0.  0.
   599  5.98  0.  0.
   600  5.99  0.  0.
   1                        -3.9184556070698E+00 -1.1410086609916E+00
     1  0.0000000000000E+00  3.5134319065211E-11 -7.4987641096591E-11
     2  1.0000000000000E-02  8.7656558722903E-04 -7.1586728586015E-04
     3  2.0000000000000E-02  3.5040269790211E-03 -2.8604031099068E-03
     4  3.0000000000000E-02  7.8756841936843E-03 -6.4244203588712E-03
     5  4.0000000000000E-02  1.3980391003731E-02 -1.1392643763273E-02
     6  5.0000000000000E-02  2.1802585485999E-02 -1.7743764641764E-02
     7  6.0000000000000E-02  3.1322332666244E-02 -2.5450517274410E-02
     8  7.0000000000000E-02  4.2515379133089E-02 -3.4479776637297E-02
     9  8.0000000000000E-02  5.5353219461082E-02 -4.4792677155813E-02
    10  9.0000000000000E-02  6.9803174247962E-02 -5.6344752060275E-02
    11  1.0000000000000E-01  8.5828479537184E-02 -6.9086092855203E-02
    12  1.1000000000000E-01  1.0338838736333E-01 -8.2961528342838E-02
    13  1.2000000000000E-01  1.2243827712541E-01 -9.7910822572752E-02
    14  1.3000000000000E-01  1.4292977746139E-01 -1.1386889102271E-01
    15  1.4000000000000E-01  1.6481089826627E-01 -1.3076603425174E-01
    16  1.5000000000000E-01  1.8802617246664E-01 -1.4852818820453E-01
    17  1.6000000000000E-01  2.1251680713581E-01 -1.6707719028763E-01
    18  1.7000000000000E-01  2.3822084350630E-01 -1.8633106028178E-01
    19  1.8000000000000E-01  2.6507332541058E-01 -2.0620429510234E-01
    20  1.9000000000000E-01  2.9300647565623E-01 -2.2660817637017E-01
    21  2.0000000000000E-01  3.2194987981853E-01 -2.4745108971000E-01
    22  2.1000000000000E-01  3.5183067691188E-01 -2.6863885465116E-01
    23  2.2000000000000E-01  3.8257375638170E-01 -2.9007506396741E-01
    24  2.3000000000000E-01  4.1410196083961E-01 -3.1166143125881E-01
    25  2.4000000000000E-01  4.4633629394882E-01 -3.3329814554864E-01
    26  2.5000000000000E-01  4.7919613285128E-01 -3.5488423164256E-01
    27  2.6000000000000E-01  5.1259944451556E-01 -3.7631791497647E-01
    28  2.7000000000000E-01  5.4646300537326E-01 -3.9749698966224E-01
    29  2.8000000000000E-01  5.8070262360261E-01 -4.1831918842873E-01
    30  2.9000000000000E-01  6.1523336341077E-01 -4.3868255314776E-01
    31  3.0000000000000E-01  6.4996977066114E-01 -4.5848580463144E-01
    32  3.1000000000000E-01  6.8482609918891E-01 -4.7762871038969E-01
    33  3.2000000000000E-01  7.1971653714658E-01 -4.9601244904216E-01
    34  3.3000000000000E-01  7.5455543272259E-01 -5.1353997009073E-01
    35  3.4000000000000E-01  7.8925751857852E-01 -5.3011634777375E-01
    36  3.5000000000000E-01  8.2373813435556E-01 -5.4564912774391E-01
    37  3.6000000000000E-01  8.5791344660794E-01 -5.6004866533613E-01
    38  3.7000000000000E-01  8.9170066552962E-01 -5.7322845422138E-01
    39  3.8000000000000E-01  9.2501825785175E-01 -5.8510544427590E-01
    40  3.9000000000000E-01  9.5778615530120E-01 -5.9560034753332E-01
    41  4.0000000000000E-01  9.8992595802509E-01 -6.0463793112915E-01
    42  4.1000000000000E-01  1.0213611324031E+00 -6.1214729619350E-01
    43  4.2000000000000E-01  1.0520172026873E+00 -6.1806214169764E-01
    44  4.3000000000000E-01  1.0818219359310E+00 -6.2232101231386E-01
    45  4.4000000000000E-01  1.1107055196868E+00 -6.2486752940533E-01
    46  4.5000000000000E-01  1.1386007319818E+00 -6.2565060432302E-01
    47  4.6000000000000E-01  1.1654431031000E+00 -6.2462463325059E-01
    48  4.7000000000000E-01  1.1911710687289E+00 -6.2174967290466E-01
    49  4.8000000000000E-01  1.2157261140570E+00 -6.1699159646691E-01
    50  4.9000000000000E-01  1.2390529084362E+00 -6.1032222919620E-01
    51  5.0000000000000E-01  1.2610994302553E+00 -6.0171946324255E-01
    52  5.1000000000000E-01  1.2818170817003E+00 -5.9116735126044E-01
    53  5.2000000000000E-01  1.3011607931133E+00 -5.7865617849611E-01
    54  5.3000000000000E-01  1.3190891166917E+00 -5.6418251310200E-01
    55  5.4000000000000E-01  1.3355643093055E+00 -5.4774923451100E-01
    56  5.5000000000000E-01  1.3505524042467E+00 -5.2936553978354E-01
    57  5.6000000000000E-01  1.3640232717575E+00 -5.0904692792103E-01
    58  5.7000000000000E-01  1.3759506682227E+00 -4.8681516222019E-01
    59  5.8000000000000E-01  1.3863122739473E+00 -4.6269821082309E-01
    60  5.9000000000000E-01  1.3950897194752E+00 -4.3673016569814E-01
    61  6.0000000000000E-01  1.4022686004448E+00 -4.0895114036625E-01
    62  6.1000000000000E-01  1.4078384810107E+00 -3.7940714676473E-01
    63  6.2000000000000E-01  1.4117928858985E+00 -3.4814995171808E-01
    64  6.3000000000000E-01  1.4141292811969E+00 -3.1523691355985E-01
    65  6.4000000000000E-01  1.4148490440240E+00 -2.8073079952280E-01
    66  6.5000000000000E-01  1.4139574212425E+00 -2.4469958458502E-01
    67  6.6000000000000E-01  1.4114634774316E+00 -2.0721623252794E-01
    68  6.7000000000000E-01  1.4073800323576E+00 -1.6835846002714E-01
    69  6.8000000000000E-01  1.4017235882167E+00 -1.2820848465910E-01
    70  6.9000000000000E-01  1.3945142469566E+00 -8.6852757765362E-02
    71  7.0000000000000E-01  1.3857756180128E+00 -4.4381683171022E-02
    72  7.1000000000000E-01  1.3755347168253E+00 -8.8932280523107E-04
    73  7.2000000000000E-01  1.3638218545287E+00  4.3526909681286E-02
    74  7.3000000000000E-01  1.3506705192361E+00  8.8766566163853E-02
    75  7.4000000000000E-01  1.3361172493601E+00  1.3472649098046E-01
    76  7.5000000000000E-01  1.3202014994394E+00  1.8130115634732E-01
    77  7.6000000000000E-01  1.3029654989595E+00  2.2838300501416E-01
    78  7.7000000000000E-01  1.2844541046763E+00  2.7586279889608E-01
    79  7.8000000000000E-01  1.2647146469686E+00  3.2362997239925E-01
    80  7.9000000000000E-01  1.2437967707616E+00  3.7157298914357E-01
    81  8.0000000000000E-01  1.2217522715779E+00  4.1957970077653E-01
    82  8.1000000000000E-01  1.1986349272821E+00  4.6753770656815E-01
    83  8.2000000000000E-01  1.1745003260982E+00  5.1533471247836E-01
    84  8.3000000000000E-01  1.1494056914834E+00  5.6285888839440E-01
    85  8.4000000000000E-01  1.1234097044487E+00  6.0999922224729E-01
    86  8.5000000000000E-01  1.0965723239208E+00  6.5664586973297E-01
    87  8.6000000000000E-01  1.0689546057392E+00  7.0269049838537E-01
    88  8.7000000000000E-01  1.0406185208829E+00  7.4802662477482E-01
    89  8.8000000000000E-01  1.0116267735174E+00  7.9254994363716E-01
    90  8.9000000000000E-01  9.8204261944751E-01  8.3615864777392E-01
    91  9.0000000000000E-01  9.5192968555453E-01  8.7875373760547E-01
    92  9.1000000000000E-01  9.2135179078637E-01  9.2023931930291E-01
    93  9.2000000000000E-01  8.9037276925887E-01  9.6052289047415E-01
    94  9.3000000000000E-01  8.5905629601234E-01  9.9951561243210E-01
    95  9.4000000000000E-01  8.2746571595296E-01  1.0371325681298E+00
    96  9.5000000000000E-01  7.9566387649129E-01  1.0732930049071E+00
    97  9.6000000000000E-01  7.6371296437181E-01  1.1079205612572E+00
    98  9.7000000000000E-01  7.3167434716666E-01  1.1409434768875E+00