Co    ONCVPSP-4.0.1  r_core=   1.60830   2.15610   2.09256
     27.0000     17.0000      210704    zatom,zion,pspd
     8      11   2     4   600     0    pspcod,pspxc,lmax,lloc,mmax,r2well
  5.99000000  6.00000000  0.00000000    rchrg fchrg qchrg
     2     2     2     0     0    nproj
     1     1           extension_switch
   0                         6.9121313661675E+00  1.2464079552901E+00
     1  0.0000000000000E+00  2.0507251452528E-10 -6.5382560476834E-10
     2  1.0000000000000E-02  8.4944157248436E-02 -1.4867711378291E-02
     3  2.0000000000000E-02  1.6967207066120E-01 -2.9636910218453E-02
     4  3.0000000000000E-02  2.5396799437035E-01 -4.4208916118487E-02
     5  4.0000000000000E-02  3.3761717988938E-01 -5.8484722579122E-02
     6  5.0000000000000E-02  4.2040637836554E-01 -7.2364857861659E-02
     7  6.0000000000000E-02  5.0212434695716E-01 -8.5749274060851E-02
     8  7.0000000000000E-02  5.8256236046577E-01 -9.8537273017592E-02
     9  8.0000000000000E-02  6.6151472914748E-01 -1.1062747704232E-01
    10  9.0000000000000E-02  7.3877932337849E-01 -1.2191785162130E-01
    11  1.0000000000000E-01  8.1415810555905E-01 -1.3230578634620E-01
    12  1.1000000000000E-01  8.8745766931410E-01 -1.4168823925669E-01
    13  1.2000000000000E-01  9.5848978569280E-01 -1.4996194863188E-01
    14  1.3000000000000E-01  1.0270719556885E+00 -1.5702371502714E-01
    15  1.4000000000000E-01  1.0930279680038E+00 -1.6277075504622E-01
    16  1.5000000000000E-01  1.1561884605753E+00 -1.6710112698589E-01
    17  1.6000000000000E-01  1.2163914839646E+00 -1.6991422711084E-01
    18  1.7000000000000E-01  1.2734830643103E+00 -1.7111135393332E-01
    19  1.8000000000000E-01  1.3273177631442E+00 -1.7059633650476E-01
    20  1.9000000000000E-01  1.3777592309956E+00 -1.6827622139901E-01
    21  2.0000000000000E-01  1.4246807513580E+00 -1.6406201179814E-01
    22  2.1000000000000E-01  1.4679657712759E+00 -1.5786945090345E-01
    23  2.2000000000000E-01  1.5075084145323E+00 -1.4961984080628E-01
    24  2.3000000000000E-01  1.5432139731852E+00 -1.3924088698216E-01
    25  2.4000000000000E-01  1.5749993730223E+00 -1.2666755773603E-01
    26  2.5000000000000E-01  1.6027936083820E+00 -1.1184294723927E-01
    27  2.6000000000000E-01  1.6265381417223E+00 -9.4719130274478E-02
    28  2.7000000000000E-01  1.6461872633230E+00 -7.5257996451194E-02
    29  2.8000000000000E-01  1.6617084065727E+00 -5.3432051483385E-02
    30  2.9000000000000E-01  1.6730824144252E+00 -2.9225173132499E-02
    31  3.0000000000000E-01  1.6803037528142E+00 -2.6333096206582E-03
    32  3.1000000000000E-01  1.6833806670810E+00  2.6334891292789E-02
    33  3.2000000000000E-01  1.6823352778057E+00  5.7657533805728E-02
    34  3.3000000000000E-01  1.6772036128294E+00  9.1299016621504E-02
    35  3.4000000000000E-01  1.6680355727075E+00  1.2720967611392E-01
    36  3.5000000000000E-01  1.6548948273459E+00  1.6532553859289E-01
    37  3.6000000000000E-01  1.6378586421273E+00  2.0556818893354E-01
    38  3.7000000000000E-01  1.6170176324346E+00  2.4784476148141E-01
    39  3.8000000000000E-01  1.5924754461110E+00  2.9204805768991E-01
    40  3.9000000000000E-01  1.5643483740570E+00  3.3805679339981E-01
    41  4.0000000000000E-01  1.5327648898417E+00  3.8573597705993E-01
    42  4.1000000000000E-01  1.4978651198920E+00  4.3493741853506E-01
    43  4.2000000000000E-01  1.4598002465102E+00  4.8550036647551E-01
    44  4.3000000000000E-01  1.4187318466477E+00  5.3725227055954E-01
    45  4.4000000000000E-01  1.3748311700181E+00  5.9000966328803E-01
    46  4.5000000000000E-01  1.3282783607643E+00  6.4357915443613E-01
    47  4.6000000000000E-01  1.2792616274831E+00  6.9775852977416E-01
    48  4.7000000000000E-01  1.2279763669596E+00  7.5233794428105E-01
    49  4.8000000000000E-01  1.1746242474493E+00  8.0710119881169E-01
    50  4.9000000000000E-01  1.1194122577828E+00  8.6182708806312E-01
    51  5.0000000000000E-01  1.0625517289216E+00  9.1629080673285E-01
    52  5.1000000000000E-01  1.0042573348875E+00  9.7026539998893E-01
    53  5.2000000000000E-01  9.4474608019481E-01  1.0235232437904E+00
    54  5.3000000000000E-01  8.8423628104342E-01  1.0758375402165E+00
    55  5.4000000000000E-01  8.2294654757554E-01  1.1269838127889E+00
    56  5.5000000000000E-01  7.6109477445927E-01  1.1767413868106E+00
    57  5.6000000000000E-01  6.9889714693768E-01  1.2248948399889E+00
    58  5.7000000000000E-01  6.3656716927601E-01  1.2712354090660E+00
    59  5.8000000000000E-01  5.7431472225360E-01  1.3155623388274E+00
    60  5.9000000000000E-01  5.1234515598654E-01  1.3576841606999E+00
    61  6.0000000000000E-01  4.5085842393601E-01  1.3974198891599E+00
    62  6.1000000000000E-01  3.9004826346412E-01  1.4346001253411E+00
    63  6.2000000000000E-01  3.3010142774974E-01  1.4690680585350E+00
    64  6.3000000000000E-01  2.7119697328071E-01  1.5006803576949E+00
    65  6.4000000000000E-01  2.1350560650544E-01  1.5293079465646E+00
    66  6.5000000000000E-01  1.5718909256531E-01  1.5548366576222E+00
    67  6.6000000000000E-01  1.0239972835069E-01  1.5771677616442E+00
    68  6.7000000000000E-01  4.9279881437705E-02  1.5962183713075E+00
    69  6.8000000000000E-01 -2.0384042182588E-03  1.6119217188539E+00
    70  6.9000000000000E-01 -5.1433735623432E-02  1.6242273093901E+00
    71  7.0000000000000E-01 -9.8795631553615E-02  1.6331009528790E+00
    72  7.1000000000000E-01 -1.4402471786884E-01  1.6385246792568E+00
    73  7.2000000000000E-01 -1.8703285893693E-01  1.6404965423690E+00
    74  7.3000000000000E-01 -2.2774322727797E-01  1.6390303195283E+00
    75  7.4000000000000E-01 -2.6609031399179E-01  1.6341551144454E+00
    76  7.5000000000000E-01 -3.0201988291328E-01  1.6259148720490E+00
    77  7.6000000000000E-01 -3.3548887175211E-01  1.6143678142852E+00
    78  7.7000000000000E-01 -3.6646524370929E-01  1.5995858063526E+00
    79  7.8000000000000E-01 -3.9492779322060E-01  1.5816536629941E+00
    80  7.9000000000000E-01 -4.2086590955609E-01  1.5606684044134E+00
    81  8.0000000000000E-01 -4.4427930200503E-01  1.5367384711285E+00
    82  8.1000000000000E-01 -4.6517769029983E-01  1.5099829066162E+00
    83  8.2000000000000E-01 -4.8358046378309E-01  1.4805305159518E+00
    84  8.3000000000000E-01 -4.9951631260479E-01  1.4485190078216E+00
    85  8.4000000000000E-01 -5.1302283395735E-01  1.4140941263007E+00
    86  8.5000000000000E-01 -5.2414611602200E-01  1.3774087776659E+00
    87  8.6000000000000E-01 -5.3294030191994E-01  1.3386221562746E+00
    88  8.7000000000000E-01 -5.3946713554408E-01  1.2978988722133E+00
    89  8.8000000000000E-01 -5.4379549070347E-01  1.2554080820353E+00
    90  8.9000000000000E-01 -5.4600088455177E-01  1.2113226224871E+00
    91  9.0000000000000E-01 -5.4616497580552E-01  1.1658181457080E+00
    92  9.1000000000000E-01 -5.4437504779800E-01  1.1190722529984E+00
    93  9.2000000000000E-01 -5.4072347597133E-01  1.0712636229279E+00
    94  9.3000000000000E-01 -5.3530717899345E-01  1.0225711283190E+00
    95  9.4000000000000E-01 -5.2822705230899E-01  9.7317293552275E-01
    96  9.5000000000000E-01 -5.1958738260143E-01  9.2324557843583E-01
    97  9.6000000000000E-01 -5.0949524136905E-01  8.7296299889793E-01
    98  9.7000000000000E-01 -4.9805985560451E-01  8.2249554449855E-01
    99  9.8000000000000E-01 -4.8539195342505E-01  7.7200891440905E-01
   100  9.9000000000000E-01 -4.7160308243111E-01  7.2166304366547E-01
   101  1.0000000000000E+00 -4.5680489857982E-01  6.7161091636363E-01
   102  1.0100000000000E+00 -4.4110842344696E-01  6.2199729849643E-01
   103  1.0200000000000E+00 -4.2462326791806E-01  5.7295738166295E-01
   104  1.0300000000000E+00 -4.0745682059350E-01  5.2461532960753E-01
   105  1.0400000000000E+00 -3.8971339951141E-01  4.7708272049304E-01
   106  1.0500000000000E+00 -3.7149336609805E-01  4.3045687861542E-01
   107  1.0600000000000E+00 -3.5289220353185E-01  3.8481910253385E-01
   108  1.0700000000000E+00 -3.3399956733988E-01  3.4023281955594E-01
   109  1.0800000000000E+00 -3.1489978362320E-01  2.9674778196518E-01
   110  1.0900000000000E+00 -2.9567498791258E-01  2.5441452601850E-01
   111  1.1000000000000E+00 -2.7640604667926E-01  2.1328850682376E-01
   112  1.1100000000000E+00 -2.5717241081146E-01  1.7342961089925E-01
   113  1.1200000000000E+00 -2.3805193568017E-01  1.3490156558109E-01
   114  1.1300000000000E+00 -2.1912066738527E-01  9.7771242045500E-02
   115  1.1400000000000E+00 -2.0045259862948E-01  6.2107864087830E-02
   116  1.1500000000000E+00 -1.8211939726875E-01  2.7982131665042E-02
   117  1.1600000000000E+00 -1.6419011041620E-01 -4.5347332124476E-03
   118  1.1700000000000E+00 -1.4673084839774E-01 -3.5372005854005E-02
   119  1.1800000000000E+00 -1.2980445300182E-01 -6.4460531241360E-02
   120  1.1900000000000E+00 -1.1347015508495E-01 -9.1733835235389E-02
   121  1.2000000000000E+00 -9.7783227021567E-02 -1.1712925933367E-01
   122  1.2100000000000E+00 -8.2794635802736E-02 -1.4058910281639E-01
   123  1.2200000000000E+00 -6.8550702824811E-02 -1.6206175545542E-01
   124  1.2300000000000E+00 -5.5092776593921E-02 -1.8150280339841E-01
   125  1.2400000000000E+00 -4.2456924555114E-02 -1.9887609090795E-01
   126  1.2500000000000E+00 -3.0673650265445E-02 -2.1415472051801E-01
   127  1.2600000000000E+00 -1.9767641902058E-02 -2.2732197480847E-01
   128  1.2700000000000E+00 -9.7575578813615E-03 -2.3837214350735E-01
   129  1.2800000000000E+00 -6.5585496673206E-04 -2.4731124070441E-01
   130  1.2900000000000E+00  7.5313362017892E-03 -2.5415759811691E-01
   131  1.3000000000000E+00  1.4804283788270E-02 -2.5894232186155E-01
   132  1.3100000000000E+00  2.1169671894917E-02 -2.6170960179719E-01
   133  1.3200000000000E+00  2.6640559135661E-02 -2.6251686451464E-01
   134  1.3300000000000E+00  3.1236276365300E-02 -2.6143476297693E-01
   135  1.3400000000000E+00  3.4982262127890E-02 -2.5854699810654E-01
   136  1.3500000000000E+00  3.7909835257636E-02 -2.5394996995925E-01
   137  1.3600000000000E+00  4.0055904912159E-02 -2.4775225837925E-01
   138  1.3700000000000E+00  4.1462619285597E-02 -2.4007393567884E-01
   139  1.3800000000000E+00  4.2176955089022E-02 -2.3104571612175E-01
   140  1.3900000000000E+00  4.2250250818107E-02 -2.2080794953922E-01
   141  1.4000000000000E+00  4.1737687674667E-02 -2.0950946869439E-01
   142  1.4100000000000E+00  4.0697722824624E-02 -1.9730630222931E-01
   143  1.4200000000000E+00  3.9191480448260E-02 -1.8436026713883E-01
   144  1.4300000000000E+00  3.7282106753019E-02 -1.7083745667362E-01
   145  1.4400000000000E+00  3.5034095705240E-02 -1.5690664116934E-01
   146  1.4500000000000E+00  3.2512592817953E-02 -1.4273760091609E-01
   147  1.4600000000000E+00  2.9782684747014E-02 -1.2849941132788E-01
   148  1.4700000000000E+00  2.6908682773444E-02 -1.1435870158526E-01
   149  1.4800000000000E+00  2.3953408517571E-02 -1.0047790870374E-01
   150  1.4900000000000E+00  2.0977490284028E-02 -8.7013549147061E-02
   151  1.5000000000000E+00  1.8038680104116E-02 -7.4114535522083E-02
   152  1.5100000000000E+00  1.5191182058270E-02 -6.1920503479273E-02
   153  1.5200000000000E+00  1.2485081711568E-02 -5.0560430060953E-02
   154  1.5300000000000E+00  9.9654317211014E-03 -4.0150127973801E-02
   155  1.5400000000000E+00  7.6690836888990E-03 -3.0782289750766E-02
   156  1.5500000000000E+00  5.6302620387345E-03 -2.2544748381686E-02
   157  1.5600000000000E+00  3.8794056830487E-03 -1.5517343751542E-02
   158  1.5700000000000E+00  2.4397466357705E-03 -9.7611883529469E-03
   159  1.5800000000000E+00  1.3274043707195E-03 -5.3191157211531E-03
   160  1.5900000000000E+00  5.5057667810408E-04 -2.2126367345237E-03
   161  1.6000000000000E+00  1.1418770863462E-04 -4.6087590988757E-04
   162  1.6100000000000E+00 -5.4065889493936E-06  2.1907112557512E-05
   163  1.6200000000000E+00  1.5945872440425E-06 -6.4495961244089E-06
   164  1.63 -0.  0.
   165  1.64 -0.  0.
   166  1.65  0.  0.
   167  1.66  0.  0.
   168  1.67  0.  0.
   169  1.68  0.  0.
   170  1.69  0.  0.
   171  1.70  0.  0.
   172  1.71  0.  0.
   173  1.72  0.  0.
   174  1.73  0.  0.
   175  1.74  0.  0.
   176  1.75  0.  0.
   177  1.76  0.  0.
   178  1.77  0.  0.
   179  1.78  0.  0.
   180  1.79  0.  0.
   181  1.80  0.  0.
   182  1.81  0.  0.
   183  1.82  0.  0.
   184  1.83  0.  0.
   185  1.84  0.  0.
   186  1.85  0.  0.
   187  1.86  0.  0.
   188  1.87  0.  0.
   189  1.88  0.  0.
   190  1.89  0.  0.
   191  1.90  0.  0.
   192  1.91  0.  0.
   193  1.92  0.  0.
   194  1.93  0.  0.
   195  1.94  0.  0.
   196  1.95  0.  0.
   197  1.96  0.  0.
   198  1.97  0.  0.
   199  1.98  0.  0.
   200  1.99  0.  0.
   201  2.00  0.  0.
   202  2.01  0.  0.
   203  2.02  0.  0.
   204  2.03  0.  0.
   205  2.04  0.  0.
   206  2.05  0.  0.
   207  2.06  0.  0.
   208  2.07  0.  0.
   209  2.08  0.  0.
   210  2.09  0.  0.
   211  2.10  0.  0.
   212  2.11  0.  0.
   213  2.12  0.  0.
   214  2.13  0.  0.
   215  2.14  0.  0.
   216  2.15  0.  0.
   217  2.16  0.  0.
   218  2.17  0.  0.
   219  2.18  0.  0.
   220  2.19  0.  0.
   221  2.20  0.  0.
   222  2.21  0.  0.
   223  2.22  0.  0.
   224  2.23  0.  0.
   225  2.24  0.  0.
   226  2.25  0.  0.
   227  2.26  0.  0.
   228  2.27  0.  0.
   229  2.28  0.  0.
   230  2.29  0.  0.
   231  2.30  0.  0.
   232  2.31  0.  0.
   233  2.32  0.  0.
   234  2.33  0.  0.
   235  2.34  0.  0.
   236  2.35  0.  0.
   237  2.36  0.  0.
   238  2.37  0.  0.
   239  2.38  0.  0.
   240  2.39  0.  0.
   241  2.40  0.  0.
   242  2.41  0.  0.
   243  2.42  0.  0.
   244  2.43  0.  0.
   245  2.44  0.  0.
   246  2.45  0.  0.
   247  2.46  0.  0.
   248  2.47  0.  0.
   249  2.48  0.  0.
   250  2.49  0.  0.
   251  2.50  0.  0.
   252  2.51  0.  0.
   253  2.52  0.  0.
   254  2.53  0.  0.
   255  2.54  0.  0.
   256  2.55  0.  0.
   257  2.56  0.  0.
   258  2.57  0.  0.
   259  2.58  0.  0.
   260  2.59  0.  0.
   261  2.60  0.  0.
   262  2.61  0.  0.
   263  2.62  0.  0.
   264  2.63  0.  0.
   265  2.64  0.  0.
   266  2.65  0.  0.
   267  2.66  0.  0.
   268  2.67  0.  0.
   269  2.68  0.  0.
   270  2.69  0.  0.
   271  2.70  0.  0.
   272  2.71  0.  0.
   273  2.72  0.  0.
   274  2.73  0.  0.
   275  2.74  0.  0.
   276  2.75  0.  0.
   277  2.76  0.  0.
   278  2.77  0.  0.
   279  2.78  0.  0.
   280  2.79  0.  0.
   281  2.80  0.  0.
   282  2.81  0.  0.
   283  2.82  0.  0.
   284  2.83  0.  0.
   285  2.84  0.  0.
   286  2.85  0.  0.
   287  2.86  0.  0.
   288  2.87  0.  0.
   289  2.88  0.  0.
   290  2.89  0.  0.
   291  2.90  0.  0.
   292  2.91  0.  0.
   293  2.92  0.  0.
   294  2.93  0.  0.
   295  2.94  0.  0.
   296  2.95  0.  0.
   297  2.96  0.  0.
   298  2.97  0.  0.
   299  2.98  0.  0.
   300  2.99  0.  0.
   301  3.00  0.  0.
   302  3.01  0.  0.
   303  3.02  0.  0.
   304  3.03  0.  0.
   305  3.04  0.  0.
   306  3.05  0.  0.
   307  3.06  0.  0.
   308  3.07  0.  0.
   309  3.08  0.  0.
   310  3.09  0.  0.
   311  3.10  0.  0.
   312  3.11  0.  0.
   313  3.12  0.  0.
   314  3.13  0.  0.
   315  3.14  0.  0.
   316  3.15  0.  0.
   317  3.16  0.  0.
   318  3.17  0.  0.
   319  3.18  0.  0.
   320  3.19  0.  0.
   321  3.20  0.  0.
   322  3.21  0.  0.
   323  3.22  0.  0.
   324  3.23  0.  0.
   325  3.24  0.  0.
   326  3.25  0.  0.
   327  3.26  0.  0.
   328  3.27  0.  0.
   329  3.28  0.  0.
   330  3.29  0.  0.
   331  3.30  0.  0.
   332  3.31  0.  0.
   333  3.32  0.  0.
   334  3.33  0.  0.
   335  3.34  0.  0.
   336  3.35  0.  0.
   337  3.36  0.  0.
   338  3.37  0.  0.
   339  3.38  0.  0.
   340  3.39  0.  0.
   341  3.40  0.  0.
   342  3.41  0.  0.
   343  3.42  0.  0.
   344  3.43  0.  0.
   345  3.44  0.  0.
   346  3.45  0.  0.
   347  3.46  0.  0.
   348  3.47  0.  0.
   349  3.48  0.  0.
   350  3.49  0.  0.
   351  3.50  0.  0.
   352  3.51  0.  0.
   353  3.52  0.  0.
   354  3.53  0.  0.
   355  3.54  0.  0.
   356  3.55  0.  0.
   357  3.56  0.  0.
   358  3.57  0.  0.
   359  3.58  0.  0.
   360  3.59  0.  0.
   361  3.60  0.  0.
   362  3.61  0.  0.
   363  3.62  0.  0.
   364  3.63  0.  0.
   365  3.64  0.  0.
   366  3.65  0.  0.
   367  3.66  0.  0.
   368  3.67  0.  0.
   369  3.68  0.  0.
   370  3.69  0.  0.
   371  3.70  0.  0.
   372  3.71  0.  0.
   373  3.72  0.  0.
   374  3.73  0.  0.
   375  3.74  0.  0.
   376  3.75  0.  0.
   377  3.76  0.  0.
   378  3.77  0.  0.
   379  3.78  0.  0.
   380  3.79  0.  0.
   381  3.80  0.  0.
   382  3.81  0.  0.
   383  3.82  0.  0.
   384  3.83  0.  0.
   385  3.84  0.  0.
   386  3.85  0.  0.
   387  3.86  0.  0.
   388  3.87  0.  0.
   389  3.88  0.  0.
   390  3.89  0.  0.
   391  3.90  0.  0.
   392  3.91  0.  0.
   393  3.92  0.  0.
   394  3.93  0.  0.
   395  3.94  0.  0.
   396  3.95  0.  0.
   397  3.96  0.  0.
   398  3.97  0.  0.
   399  3.98  0.  0.
   400  3.99  0.  0.
   401  4.00  0.  0.
   402  4.01  0.  0.
   403  4.02  0.  0.
   404  4.03  0.  0.
   405  4.04  0.  0.
   406  4.05  0.  0.
   407  4.06  0.  0.
   408  4.07  0.  0.
   409  4.08  0.  0.
   410  4.09  0.  0.
   411  4.10  0.  0.
   412  4.11  0.  0.
   413  4.12  0.  0.
   414  4.13  0.  0.
   415  4.14  0.  0.
   416  4.15  0.  0.
   417  4.16  0.  0.
   418  4.17  0.  0.
   419  4.18  0.  0.
   420  4.19  0.  0.
   421  4.20  0.  0.
   422  4.21  0.  0.
   423  4.22  0.  0.
   424  4.23  0.  0.
   425  4.24  0.  0.
   426  4.25  0.  0.
   427  4.26  0.  0.
   428  4.27  0.  0.
   429  4.28  0.  0.
   430  4.29  0.  0.
   431  4.30  0.  0.
   432  4.31  0.  0.
   433  4.32  0.  0.
   434  4.33  0.  0.
   435  4.34  0.  0.
   436  4.35  0.  0.
   437  4.36  0.  0.
   438  4.37  0.  0.
   439  4.38  0.  0.
   440  4.39  0.  0.
   441  4.40  0.  0.
   442  4.41  0.  0.
   443  4.42  0.  0.
   444  4.43  0.  0.
   445  4.44  0.  0.
   446  4.45  0.  0.
   447  4.46  0.  0.
   448  4.47  0.  0.
   449  4.48  0.  0.
   450  4.49  0.  0.
   451  4.50  0.  0.
   452  4.51  0.  0.
   453  4.52  0.  0.
   454  4.53  0.  0.
   455  4.54  0.  0.
   456  4.55  0.  0.
   457  4.56  0.  0.
   458  4.57  0.  0.
   459  4.58  0.  0.
   460  4.59  0.  0.
   461  4.60  0.  0.
   462  4.61  0.  0.
   463  4.62  0.  0.
   464  4.63  0.  0.
   465  4.64  0.  0.
   466  4.65  0.  0.
   467  4.66  0.  0.
   468  4.67  0.  0.
   469  4.68  0.  0.
   470  4.69  0.  0.
   471  4.70  0.  0.
   472  4.71  0.  0.
   473  4.72  0.  0.
   474  4.73  0.  0.
   475  4.74  0.  0.
   476  4.75  0.  0.
   477  4.76  0.  0.
   478  4.77  0.  0.
   479  4.78  0.  0.
   480  4.79  0.  0.
   481  4.80  0.  0.
   482  4.81  0.  0.
   483  4.82  0.  0.
   484  4.83  0.  0.
   485  4.84  0.  0.
   486  4.85  0.  0.
   487  4.86  0.  0.
   488  4.87  0.  0.
   489  4.88  0.  0.
   490  4.89  0.  0.
   491  4.90  0.  0.
   492  4.91  0.  0.
   493  4.92  0.  0.
   494  4.93  0.  0.
   495  4.94  0.  0.
   496  4.95  0.  0.
   497  4.96  0.  0.
   498  4.97  0.  0.
   499  4.98  0.  0.
   500  4.99  0.  0.
   501  5.00  0.  0.
   502  5.01  0.  0.
   503  5.02  0.  0.
   504  5.03  0.  0.
   505  5.04  0.  0.
   506  5.05  0.  0.
   507  5.06  0.  0.
   508  5.07  0.  0.
   509  5.08  0.  0.
   510  5.09  0.  0.
   511  5.10  0.  0.
   512  5.11  0.  0.
   513  5.12  0.  0.
   514  5.13  0.  0.
   515  5.14  0.  0.
   516  5.15  0.  0.
   517  5.16  0.  0.
   518  5.17  0.  0.
   519  5.18  0.  0.
   520  5.19  0.  0.
   521  5.20  0.  0.
   522  5.21  0.  0.
   523  5.22  0.  0.
   524  5.23  0.  0.
   525  5.24  0.  0.
   526  5.25  0.  0.
   527  5.26  0.  0.
   528  5.27  0.  0.
   529  5.28  0.  0.
   530  5.29  0.  0.
   531  5.30  0.  0.
   532  5.31  0.  0.
   533  5.32  0.  0.
   534  5.33  0.  0.
   535  5.34  0.  0.
   536  5.35  0.  0.
   537  5.36  0.  0.
   538  5.37  0.  0.
   539  5.38  0.  0.
   540  5.39  0.  0.
   541  5.40  0.  0.
   542  5.41  0.  0.
   543  5.42  0.  0.
   544  5.43  0.  0.
   545  5.44  0.  0.
   546  5.45  0.  0.
   547  5.46  0.  0.
   548  5.47  0.  0.
   549  5.48  0.  0.
   550  5.49  0.  0.
   551  5.50  0.  0.
   552  5.51  0.  0.
   553  5.52  0.  0.
   554  5.53  0.  0.
   555  5.54  0.  0.
   556  5.55  0.  0.
   557  5.56  0.  0.
   558  5.57  0.  0.
   559  5.58  0.  0.
   560  5.59  0.  0.
   561  5.60  0.  0.
   562  5.61  0.  0.
   563  5.62  0.  0.
   564  5.63  0.  0.
   565  5.64  0.  0.
   566  5.65  0.  0.
   567  5.66  0.  0.
   568  5.67  0.  0.
   569  5.68  0.  0.
   570  5.69  0.  0.
   571  5.70  0.  0.
   572  5.71  0.  0.
   573  5.72  0.  0.
   574  5.73  0.  0.
   575  5.74  0.  0.
   576  5.75  0.  0.
   577  5.76  0.  0.
   578  5.77  0.  0.
   579  5.78  0.  0.
   580  5.79  0.  0.
   581  5.80  0.  0.
   582  5.81  0.  0.
   583  5.82  0.  0.
   584  5.83  0.  0.
   585  5.84  0.  0.
   586  5.85  0.  0.
   587  5.86  0.  0.
   588  5.87  0.  0.
   589  5.88  0.  0.
   590  5.89  0.  0.
   591  5.90  0.  0.
   592  5.91  0.  0.
   593  5.92  0.  0.
   594  5.93  0.  0.
   595  5.94  0.  0.
   596  5.95  0.  0.
   597  5.96  0.  0.
   598  5.97  0.  0.
   599  5.98  0.  0.
   600  5.99  0.  0.
   1                        -5.4064521223242E+00 -9.5820669344480E-01
     1  0.0000000000000E+00 -8.6172863289491E-10  9.1342163693886E-10
     2  1.0000000000000E-02 -2.0426107375590E-03  9.1143051773958E-04
     3  2.0000000000000E-02 -8.1575116499750E-03  3.6372131445295E-03
     4  3.0000000000000E-02 -1.8305984566969E-02  8.1518875590152E-03
     5  4.0000000000000E-02 -3.2423751186719E-02  1.4413240934960E-02
     6  5.0000000000000E-02 -5.0421349466048E-02  2.2362637815450E-02
     7  6.0000000000000E-02 -7.2184657411151E-02  3.1925478569428E-02
     8  7.0000000000000E-02 -9.7575561136642E-02  4.3011783091435E-02
     9  8.0000000000000E-02 -1.2643276319895E-01  5.5516895491997E-02
    10  9.0000000000000E-02 -1.5857272637292E-01  6.9322304642233E-02
    11  1.0000000000000E-01 -1.9379074723300E-01  8.4296574588657E-02
    12  1.1000000000000E-01 -2.3186215312780E-01  1.0029637804873E-01
    13  1.2000000000000E-01 -2.7254361540319E-01  1.1716762544009E-01
    14  1.3000000000000E-01 -3.1557457104039E-01  1.3474668119206E-01
    15  1.4000000000000E-01 -3.6067874423360E-01  1.5286165844203E-01
    16  1.5000000000000E-01 -4.0756575884355E-01  1.7133378263604E-01
    17  1.6000000000000E-01 -4.5593283212940E-01  1.8997881403744E-01
    18  1.7000000000000E-01 -5.0546653968769E-01  2.0860851870199E-01
    19  1.8000000000000E-01 -5.5584464111428E-01  2.2703217710746E-01
    20  1.9000000000000E-01 -6.0673795555760E-01  2.4505811933209E-01
    21  2.0000000000000E-01 -6.5781227604978E-01  2.6249527546166E-01
    22  2.1000000000000E-01 -7.0873031128903E-01  2.7915472977157E-01
    23  2.2000000000000E-01 -7.5915364340285E-01  2.9485126717919E-01
    24  2.3000000000000E-01 -8.0874469014776E-01  3.0940490049260E-01
    25  2.4000000000000E-01 -8.5716865999850E-01  3.2264236709633E-01
    26  2.5000000000000E-01 -9.0409548864702E-01  3.3439858391017E-01
    27  2.6000000000000E-01 -9.4920174556886E-01  3.4451804973419E-01
    28  2.7000000000000E-01 -9.9217249952156E-01  3.5285618444871E-01
    29  2.8000000000000E-01 -1.0327031321135E+00  3.5928059497057E-01
    30  2.9000000000000E-01 -1.0705010889214E+00  3.6367225837294E-01
    31  3.0000000000000E-01 -1.1052875580393E+00  3.6592661315260E-01
    32  3.1000000000000E-01 -1.1367990664041E+00  3.6595455027099E-01
    33  3.2000000000000E-01 -1.1647889847674E+00  3.6368329630009E-01
    34  3.3000000000000E-01 -1.1890289327587E+00  3.5905718176496E-01
    35  3.4000000000000E-01 -1.2093100761112E+00  3.5203828858792E-01
    36  3.5000000000000E-01 -1.2254443087980E+00  3.4260697139693E-01
    37  3.6000000000000E-01 -1.2372653135402E+00  3.3076224835891E-01
    38  3.7000000000000E-01 -1.2446294949030E+00  3.1652205812894E-01
    39  3.8000000000000E-01 -1.2474167799808E+00  2.9992338046317E-01
    40  3.9000000000000E-01 -1.2455312824884E+00  2.8102221901949E-01
    41  4.0000000000000E-01 -1.2389018269101E+00  2.5989344585792E-01
    42  4.1000000000000E-01 -1.2274823302097E+00  2.3663050814602E-01
    43  4.2000000000000E-01 -1.2112520394740E+00  2.1134499856519E-01
    44  4.3000000000000E-01 -1.1902156247267E+00  1.8416609189477E-01
    45  4.4000000000000E-01 -1.1644031270260E+00  1.5523985121525E-01
    46  4.5000000000000E-01 -1.1338697628215E+00  1.2472840811160E-01
    47  4.6000000000000E-01 -1.0986955864021E+00  9.2809022167476E-02
    48  4.7000000000000E-01 -1.0589850131071E+00  5.9673025912171E-02
    49  4.8000000000000E-01 -1.0148662067884E+00  2.5524662210101E-02
    50  4.9000000000000E-01 -9.6649033580586E-01 -9.4201781402930E-03
    51  5.0000000000000E-01 -9.1403070259586E-01 -4.4935310109607E-02
    52  5.1000000000000E-01 -8.5768175258050E-01 -8.0785690293443E-02
    53  5.2000000000000E-01 -7.9765796886670E-01 -1.1672892517756E-01
    54  5.3000000000000E-01 -7.3419265982672E-01 -1.5251684154401E-01
    55  5.4000000000000E-01 -6.6753664724254E-01 -1.8789710829925E-01
    56  5.5000000000000E-01 -5.9795686323785E-01 -2.2261489863137E-01
    57  5.6000000000000E-01 -5.2573486470740E-01 -2.5641458110908E-01
    58  5.7000000000000E-01 -4.5116527438256E-01 -2.8904142812216E-01
    59  5.8000000000000E-01 -3.7455415804181E-01 -3.2024332993160E-01
    60  5.9000000000000E-01 -2.9621734768327E-01 -3.4977250255075E-01
    61  6.0000000000000E-01 -2.1647872072249E-01 -3.7738717771303E-01
    62  6.1000000000000E-01 -1.3566844546105E-01 -4.0285326329931E-01
    63  6.2000000000000E-01 -5.4121203190074E-02 -4.2594596279546E-01
    64  6.3000000000000E-01  2.7825602653211E-02 -4.4645134262713E-01
    65  6.4000000000000E-01  1.0983363986686E-01 -4.6416783657057E-01
    66  6.5000000000000E-01  1.9156543306733E-01 -4.7890767686297E-01
    67  6.6000000000000E-01  2.7268613127216E-01 -4.9049824212897E-01
    68  6.7000000000000E-01  3.5286524747444E-01 -4.9878331279781E-01
    69  6.8000000000000E-01  4.3177836045390E-01 -5.0362422530186E-01
    70  6.9000000000000E-01  5.0910876937771E-01 -5.0490091701903E-01
    71  7.0000000000000E-01  5.8454909210557E-01 -5.0251285464030E-01
    72  7.1000000000000E-01  6.5780279852508E-01 -4.9637983940579E-01
    73  7.2000000000000E-01  7.2858567070149E-01 -4.8644268345031E-01
    74  7.3000000000000E-01  7.9662718212727E-01 -4.7266375232685E-01
    75  7.4000000000000E-01  8.6167178889748E-01 -4.5502736962638E-01
    76  7.5000000000000E-01  9.2348012621243E-01 -4.3354008047861E-01
    77  7.6000000000000E-01  9.8183010421615E-01 -4.0823077159352E-01
    78  7.7000000000000E-01  1.0365178978124E+00 -3.7915064638143E-01
    79  7.8000000000000E-01  1.0873588257550E+00 -3.4637305456221E-01
    80  7.9000000000000E-01  1.1341881149839E+00 -3.0999317653741E-01
    81  8.0000000000000E-01  1.1768615468624E+00 -2.7012756364327E-01
    82  8.1000000000000E-01  1.2152559826670E+00 -2.2691353622505E-01
    83  8.2000000000000E-01  1.2492697663810E+00 -1.8050844226504E-01
    84  8.3000000000000E-01  1.2788230035372E+00 -1.3108878005455E-01
    85  8.4000000000000E-01  1.3038577155533E+00 -7.8849189117986E-02
    86  8.5000000000000E-01  1.3243378696828E+00 -2.4001314270730E-02
    87  8.6000000000000E-01  1.3402492853778E+00  3.3227451682536E-02
    88  8.7000000000000E-01  1.3515994185111E+00  9.2595340529770E-02
    89  8.8000000000000E-01  1.3584170255391E+00  1.5384768991695E-01
    90  8.9000000000000E-01  1.3607517102938E+00  2.1671852624095E-01
    91  9.0000000000000E-01  1.3586733566701E+00  2.8093224171441E-01
    92  9.1000000000000E-01  1.3522714510279E+00  3.4620535780951E-01
    93  9.2000000000000E-01  1.3416542986387E+00  4.1224836701210E-01
    94  9.3000000000000E-01  1.3269481389892E+00  4.7876764460524E-01
    95  9.4000000000000E-01  1.3082961651946E+00  5.4546742205185E-01
    96  9.5000000000000E-01  1.2858574531733E+00  6.1205181345805E-01
    97  9.6000000000000E-01  1.2598058065978E+00  6.7822688657285E-01
    98  9.7000000000000E-01  1.2303285239476E+00  7.4370276981191E-01
    99  9.8000000000000E-01  1.1976250942685E+00  8.0819578688370E-01
   100  9.9000000000000E-01  1.1619058284656E+00  8.7143061074055E-01
   101  1.0000000000000E+00  1.1233904331427E+00  9.3314242877425E-01
   102  1.0100000000000E+00  1.0823065341401E+00  9.9307911142092E-01
   103  1.0200000000000E+00  1.0388881570138E+00  1.0510033766307E+00
   104  1.0300000000000E+00  9.9337417175166E-01  1.1066949429899E+00
   105  1.0400000000000E+00  9.4600670902594E-01  1.1599526646536E+00
   106  1.0500000000000E+00  8.9702955529422E-01  1.2105966418522E+00
   107  1.0600000000000E+00  8.4668653234207E-01  1.2584702941994E+00
   108  1.0700000000000E+00  7.9521986392498E-01  1.3034423718645E+00
   109  1.0800000000000E+00  7.4286777101809E-01  1.3454052770757E+00
   110  1.0900000000000E+00  6.8986127516453E-01  1.3842668829324E+00
   111  1.1000000000000E+00  6.3642310694720E-01  1.4199478581226E+00
   112  1.1100000000000E+00  5.8276737425613E-01  1.4523815285021E+00
   113  1.1200000000000E+00  5.2909926817128E-01  1.4815137013810E+00
   114  1.1300000000000E+00  4.7561480653229E-01  1.5073024591405E+00
   115  1.1400000000000E+00  4.2250061324881E-01  1.5297179210493E+00
   116  1.1500000000000E+00  3.6993373232557E-01  1.5487419749407E+00
   117  1.1600000000000E+00  3.1808147578192E-01  1.5643679824042E+00
   118  1.1700000000000E+00  2.6710130437717E-01  1.5766004591899E+00
   119  1.1800000000000E+00  2.1714074017239E-01  1.5854547334827E+00
   120  1.1900000000000E+00  1.6833730990493E-01  1.5909565843480E+00
   121  1.2000000000000E+00  1.2081851814595E-01  1.5931418625512E+00
   122  1.2100000000000E+00  7.4701849208401E-02  1.5920560959144E+00
   123  1.2200000000000E+00  3.0094796766667E-02  1.5877540812824E+00
   124  1.2300000000000E+00 -1.2905079854204E-02  1.5802994649752E+00
   125  1.2400000000000E+00 -5.4210073761039E-02  1.5697643136276E+00
   126  1.2500000000000E+00 -9.3742223988410E-02  1.5562286770385E+00
   127  1.2600000000000E+00 -1.3143318544838E-01  1.5397801446751E+00