Ni    ONCVPSP-4.0.1  r_core=   1.72718   2.23383   2.00579
     28.0000     18.0000      220730    zatom,zion,pspd
     8      11   2     4   600     0    pspcod,pspxc,lmax,lloc,mmax,r2well
  5.99000000  3.00000000  0.00000000    rchrg fchrg qchrg
     2     2     2     0     0    nproj
     1     1           extension_switch
   0                         6.7313442626462E+00  9.2623959337750E-01
     1  0.0000000000000E+00  8.6392892839626E-11 -5.8212795694956E-10
     2  1.0000000000000E-02  8.8430282147533E-02 -2.8314333611978E-02
     3  2.0000000000000E-02  1.7661936719414E-01 -5.6461633148328E-02
     4  3.0000000000000E-02  2.6432677313051E-01 -8.4275001724578E-02
     5  4.0000000000000E-02  3.5131344733010E-01 -1.1158782531304E-01
     6  5.0000000000000E-02  4.3734247921678E-01 -1.3823393520748E-01
     7  6.0000000000000E-02  5.2217981044133E-01 -1.6404779531312E-01
     8  7.0000000000000E-02  6.0559494163318E-01 -1.8886472184573E-01
     9  8.0000000000000E-02  6.8736163470733E-01 -2.1252114244124E-01
    10  9.0000000000000E-02  7.6725860960104E-01 -2.3485490096313E-01
    11  1.0000000000000E-01  8.4507023419273E-01 -2.5570561345690E-01
    12  1.1000000000000E-01  9.2058720601788E-01 -2.7491507974932E-01
    13  1.2000000000000E-01  9.9360722424660E-01 -2.9232775413774E-01
    14  1.3000000000000E-01  1.0639356502276E+00 -3.0779127747283E-01
    15  1.4000000000000E-01  1.1313861547359E+00 -3.2115707172336E-01
    16  1.5000000000000E-01  1.1957813498906E+00 -3.3228099683764E-01
    17  1.6000000000000E-01  1.2569534035374E+00 -3.4102406840141E-01
    18  1.7000000000000E-01  1.3147446337207E+00 -3.4725323325245E-01
    19  1.8000000000000E-01  1.3690080807100E+00 -3.5084219886736E-01
    20  1.9000000000000E-01  1.4196080538900E+00 -3.5167231100338E-01
    21  2.0000000000000E-01  1.4664206506877E+00 -3.4963347277880E-01
    22  2.1000000000000E-01  1.5093342445883E+00 -3.4462509712534E-01
    23  2.2000000000000E-01  1.5482499391922E+00 -3.3655708336861E-01
    24  2.3000000000000E-01  1.5830819851890E+00 -3.2535080760144E-01
    25  2.4000000000000E-01  1.6137581570813E+00 -3.1094011553310E-01
    26  2.5000000000000E-01  1.6402200864704E+00 -2.9327230563806E-01
    27  2.6000000000000E-01  1.6624235487383E+00 -2.7230908971019E-01
    28  2.7000000000000E-01  1.6803387000135E+00 -2.4802751736406E-01
    29  2.8000000000000E-01  1.6939502614015E+00 -2.2042085063125E-01
    30  2.9000000000000E-01  1.7032576475949E+00 -1.8949937458370E-01
    31  3.0000000000000E-01  1.7082750371540E+00 -1.5529112988988E-01
    32  3.1000000000000E-01  1.7090313819649E+00 -1.1784255338031E-01
    33  3.2000000000000E-01  1.7055703536430E+00 -7.7219013069523E-02
    34  3.3000000000000E-01  1.6979502249517E+00 -3.3505224655636E-02
    35  3.4000000000000E-01  1.6862436846497E+00  1.3194462703957E-02
    36  3.5000000000000E-01  1.6705375845590E+00  6.2755922567373E-02
    37  3.6000000000000E-01  1.6509326180709E+00  1.1503525939034E-01
    38  3.7000000000000E-01  1.6275429297531E+00  1.6986897742011E-01
    39  3.8000000000000E-01  1.6004956562108E+00  2.2707431748101E-01
    40  3.9000000000000E-01  1.5699303988617E+00  2.8644976714885E-01
    41  4.0000000000000E-01  1.5359986298156E+00  3.4777574799001E-01
    42  4.1000000000000E-01  1.4988630326012E+00  4.1081548159882E-01
    43  4.2000000000000E-01  1.4586967800362E+00  4.7531603412707E-01
    44  4.3000000000000E-01  1.4156827521068E+00  5.4100953688686E-01
    45  4.4000000000000E-01  1.3700126972775E+00  6.0761457844737E-01
    46  4.5000000000000E-01  1.3218863412116E+00  6.7483776146680E-01
    47  4.6000000000000E-01  1.2715104474165E+00  7.4237541532988E-01
    48  4.7000000000000E-01  1.2190978348461E+00  8.0991545352991E-01
    49  4.8000000000000E-01  1.1648663579770E+00  8.7713936267089E-01
    50  4.9000000000000E-01  1.1090378553264E+00  9.4372430800105E-01
    51  5.0000000000000E-01  1.0518370727886E+00  1.0093453385513E+00
    52  5.1000000000000E-01  9.9349056852107E-01  1.0736776732718E+00
    53  5.2000000000000E-01  9.3422560642098E-01  1.1363990480598E+00
    54  5.3000000000000E-01  8.7426904547026E-01  1.1971921022820E+00
    55  5.4000000000000E-01  8.1384623241108E-01  1.2557467823316E+00
    56  5.5000000000000E-01  7.5317990532010E-01  1.3117627389495E+00
    57  5.6000000000000E-01  6.9248911568935E-01  1.3649516944925E+00
    58  5.7000000000000E-01  6.3198817658458E-01  1.4150397560656E+00
    59  5.8000000000000E-01  5.7188564433996E-01  1.4617696504562E+00
    60  5.9000000000000E-01  5.1238334105997E-01  1.5049028571262E+00
    61  6.0000000000000E-01  4.5367542493591E-01  1.5442216161284E+00
    62  6.1000000000000E-01  3.9594751504729E-01  1.5795307887161E+00
    63  6.2000000000000E-01  3.3937587691070E-01  1.6106595496045E+00
    64  6.3000000000000E-01  2.8412667456317E-01  1.6374628913028E+00
    65  6.4000000000000E-01  2.3035529443014E-01  1.6598229226506E+00
    66  6.5000000000000E-01  1.7820574563365E-01  1.6776499456497E+00
    67  6.6000000000000E-01  1.2781014075227E-01  1.6908832968442E+00
    68  6.7000000000000E-01  7.9288260357959E-02  1.6994919418536E+00
    69  6.8000000000000E-01  3.2747203933253E-02  1.7034748141662E+00
    70  6.9000000000000E-01 -1.1718870973977E-02  1.7028608919237E+00
    71  7.0000000000000E-01 -5.4028920264778E-02  1.6977090091327E+00
    72  7.1000000000000E-01 -9.4115095148748E-02  1.6881074004947E+00
    73  7.2000000000000E-01 -1.3192273479273E-01  1.6741729818014E+00
    74  7.3000000000000E-01 -1.6741027095640E-01  1.6560503705708E+00
    75  7.4000000000000E-01 -2.0054904654426E-01  1.6339106542533E+00
    76  7.5000000000000E-01 -2.3132305070275E-01  1.6079499158776E+00
    77  7.6000000000000E-01 -2.5972857374930E-01  1.5783875294015E+00
    78  7.7000000000000E-01 -2.8577378582761E-01  1.5454642392379E+00
    79  7.8000000000000E-01 -3.0947824373348E-01  1.5094400404183E+00
    80  7.9000000000000E-01 -3.3087233083971E-01  1.4705918775972E+00
    81  8.0000000000000E-01 -3.4999663546182E-01  1.4292111825653E+00
    82  8.1000000000000E-01 -3.6690127334235E-01  1.3856012711113E+00
    83  8.2000000000000E-01 -3.8164516018744E-01  1.3400746209243E+00
    84  8.3000000000000E-01 -3.9429524036123E-01  1.2929500527558E+00
    85  8.4000000000000E-01 -4.0492567793040E-01  1.2445498372509E+00
    86  8.5000000000000E-01 -4.1361701625297E-01  1.1951967497080E+00
    87  8.6000000000000E-01 -4.2045531222236E-01  1.1452110945469E+00
    88  8.7000000000000E-01 -4.2553125111282E-01  1.0949077204507E+00
    89  8.8000000000000E-01 -4.2893924772946E-01  1.0445930460261E+00
    90  8.9000000000000E-01 -4.3077653924916E-01  9.9456211440823E-01
    91  9.0000000000000E-01 -4.3114227475456E-01  9.4509569354778E-01
    92  9.1000000000000E-01 -4.3013660601934E-01  8.9645743698947E-01
    93  9.2000000000000E-01 -4.2785978360587E-01  8.4889111780953E-01
    94  9.3000000000000E-01 -4.2441126179685E-01  8.0261794606893E-01
    95  9.4000000000000E-01 -4.1988881530827E-01  7.5783397769047E-01
    96  9.5000000000000E-01 -4.1438767013400E-01  7.1470762012864E-01
    97  9.6000000000000E-01 -4.0799965026113E-01  6.7337723761017E-01
    98  9.7000000000000E-01 -4.0081234138180E-01  6.3394885612794E-01
    99  9.8000000000000E-01 -3.9290827212176E-01  5.9649396581293E-01
   100  9.9000000000000E-01 -3.8436411271833E-01  5.6104741583293E-01
   101  1.0000000000000E+00 -3.7524989052152E-01  5.2760539461528E-01
   102  1.0100000000000E+00 -3.6562822071217E-01  4.9612348295034E-01
   103  1.0200000000000E+00 -3.5555355420170E-01  4.6651479253843E-01
   104  1.0300000000000E+00 -3.4507167601257E-01  4.3864978036995E-01
   105  1.0400000000000E+00 -3.3422205955279E-01  4.1237492392836E-01
   106  1.0500000000000E+00 -3.2304100752657E-01  3.8753437309249E-01
   107  1.0600000000000E+00 -3.1156233021972E-01  3.6397347672593E-01
   108  1.0700000000000E+00 -2.9981774347603E-01  3.4154032840402E-01
   109  1.0800000000000E+00 -2.8783725835460E-01  3.2008727338724E-01
   110  1.0900000000000E+00 -2.7564956087241E-01  2.9947238236919E-01
   111  1.1000000000000E+00 -2.6328237575477E-01  2.7956086465250E-01
   112  1.1100000000000E+00 -2.5076280947124E-01  2.6022640177606E-01
   113  1.1200000000000E+00 -2.3811766788026E-01  2.4135238193440E-01
   114  1.1300000000000E+00 -2.2537374420477E-01  2.2283301702247E-01
   115  1.1400000000000E+00 -2.1255807354142E-01  2.0457432600124E-01
   116  1.1500000000000E+00 -1.9969815052971E-01  1.8649496970849E-01
   117  1.1600000000000E+00 -1.8682210739069E-01  1.6852692456448E-01
   118  1.1700000000000E+00 -1.7395885009098E-01  1.5061598465954E-01
   119  1.1800000000000E+00 -1.6113815098812E-01  1.3272208405366E-01
   120  1.1900000000000E+00 -1.4839069698859E-01  1.1481943384662E-01
   121  1.2000000000000E+00 -1.3574809283079E-01  9.6896470794023E-02
   122  1.2100000000000E+00 -1.2324281984066E-01  7.8955617321796E-02
   123  1.2200000000000E+00 -1.1090815108449E-01  6.1012855025651E-02
   124  1.2300000000000E+00 -9.8778024551041E-02  4.3097116733535E-02
   125  1.2400000000000E+00 -8.6886876585613E-02  2.5249504602358E-02
   126  1.2500000000000E+00 -7.5269438384118E-02  7.5223441629794E-03
   127  1.2600000000000E+00 -6.3960498963736E-02 -1.0021913153929E-02
   128  1.2700000000000E+00 -5.2994638467520E-02 -2.7311924666833E-02
   129  1.2800000000000E+00 -4.2405936186766E-02 -4.4268811578510E-02
   130  1.2900000000000E+00 -3.2227658045766E-02 -6.0807616352654E-02
   131  1.3000000000000E+00 -2.2491928633538E-02 -7.6838842542805E-02
   132  1.3100000000000E+00 -1.3229393154935E-02 -9.2270055926990E-02
   133  1.3200000000000E+00 -4.4688748327720E-03 -1.0700752501064E-01
   134  1.3300000000000E+00  3.7629665727055E-03 -1.2095787820640E-01
   135  1.3400000000000E+00  1.1441969429212E-02 -1.3402975468386E-01
   136  1.3500000000000E+00  1.8546792447889E-02 -1.4613542595946E-01
   137  1.3600000000000E+00  2.5059218914898E-02 -1.5719236548402E-01
   138  1.3700000000000E+00  3.0964437627402E-02 -1.6712474420827E-01
   139  1.3800000000000E+00  3.6251295513091E-02 -1.7586483109737E-01
   140  1.3900000000000E+00  4.0912517228419E-02 -1.8335427862865E-01
   141  1.4000000000000E+00  4.4944887502004E-02 -1.8954527507006E-01
   142  1.4100000000000E+00  4.8349392440936E-02 -1.9440154696477E-01
   143  1.4200000000000E+00  5.1131316559566E-02 -1.9789919727648E-01
   144  1.4300000000000E+00  5.3300292914512E-02 -2.0002736704807E-01
   145  1.4400000000000E+00  5.4870304305256E-02 -2.0078871057371E-01
   146  1.4500000000000E+00  5.5859634217751E-02 -2.0019967690005E-01
   147  1.4600000000000E+00  5.6290766839890E-02 -1.9829059296869E-01
   148  1.4700000000000E+00  5.6190236197566E-02 -1.9510554653791E-01
   149  1.4800000000000E+00  5.5588425146404E-02 -1.9070206970133E-01
   150  1.4900000000000E+00  5.4519315691105E-02 -1.8515062675692E-01
   151  1.5000000000000E+00  5.3020192736986E-02 -1.7853391265435E-01
   152  1.5100000000000E+00  5.1131304092679E-02 -1.7094597113462E-01
   153  1.5200000000000E+00  4.8895480137571E-02 -1.6249114404305E-01
   154  1.5300000000000E+00  4.6357717162581E-02 -1.5328286570618E-01
   155  1.5400000000000E+00  4.3564728926530E-02 -1.4344231843593E-01
   156  1.5500000000000E+00  4.0564471458837E-02 -1.3309696723507E-01
   157  1.5600000000000E+00  3.7405646531349E-02 -1.2237899340021E-01
   158  1.5700000000000E+00  3.4137189572926E-02 -1.1142364820251E-01
   159  1.5800000000000E+00  3.0807748086263E-02 -1.0036754906901E-01
   160  1.5900000000000E+00  2.7465156768973E-02 -8.9346941330634E-02
   161  1.6000000000000E+00  2.4155915693267E-02 -7.8495949346802E-02
   162  1.6100000000000E+00  2.0924678599763E-02 -6.7944845092064E-02
   163  1.6200000000000E+00  1.7813749954427E-02 -5.7818313004143E-02
   164  1.6300000000000E+00  1.4862629697547E-02 -4.8233925396836E-02
   165  1.6400000000000E+00  1.2107521975974E-02 -3.9300338979918E-02
   166  1.6500000000000E+00  9.5798738768422E-03 -3.1109590838585E-02
   167  1.6600000000000E+00  7.3072173869637E-03 -2.3742859822695E-02
   168  1.6700000000000E+00  5.3147761190186E-03 -1.7280923096005E-02
   169  1.6800000000000E+00  3.6227586607138E-03 -1.1788961860337E-02
   170  1.6900000000000E+00  2.2462917144494E-03 -7.3166238117408E-03
   171  1.7000000000000E+00  1.1955610335176E-03 -3.8983598983810E-03
   172  1.7100000000000E+00  4.7226732459029E-04 -1.5417641132882E-03
   173  1.7200000000000E+00  8.7175021356052E-05 -2.8499338396346E-04
   174  1.7300000000000E+00 -7.6896871672879E-06  2.5161721840915E-05
   175  1.7400000000000E+00  1.9452669435637E-06 -6.3620520157153E-06
   176  1.7500 -0.  0.
   177  1.7600 -0.  0.
   178  1.7700  0.  0.
   179  1.7800  0.  0.
   180  1.7900  0.  0.
   181  1.8000  0.  0.
   182  1.8100  0.  0.
   183  1.8200  0.  0.
   184  1.8300  0.  0.
   185  1.8400  0.  0.
   186  1.8500  0.  0.
   187  1.8600  0.  0.
   188  1.8700  0.  0.
   189  1.8800  0.  0.
   190  1.8900  0.  0.
   191  1.9000  0.  0.
   192  1.9100  0.  0.
   193  1.9200  0.  0.
   194  1.9300  0.  0.
   195  1.9400  0.  0.
   196  1.9500  0.  0.
   197  1.9600  0.  0.
   198  1.9700  0.  0.
   199  1.9800  0.  0.
   200  1.9900  0.  0.
   201  2.0000  0.  0.
   202  2.0100  0.  0.
   203  2.0200  0.  0.
   204  2.0300  0.  0.
   205  2.0400  0.  0.
   206  2.0500  0.  0.
   207  2.0600  0.  0.
   208  2.0700  0.  0.
   209  2.0800  0.  0.
   210  2.0900  0.  0.
   211  2.1000  0.  0.
   212  2.1100  0.  0.
   213  2.1200  0.  0.
   214  2.1300  0.  0.
   215  2.1400  0.  0.
   216  2.1500  0.  0.
   217  2.1600  0.  0.
   218  2.1700  0.  0.
   219  2.1800  0.  0.
   220  2.1900  0.  0.
   221  2.2000  0.  0.
   222  2.2100  0.  0.
   223  2.2200  0.  0.
   224  2.2300  0.  0.
   225  2.2400  0.  0.
   226  2.2500  0.  0.
   227  2.2600  0.  0.
   228  2.2700  0.  0.
   229  2.2800  0.  0.
   230  2.2900  0.  0.
   231  2.3000  0.  0.
   232  2.3100  0.  0.
   233  2.3200  0.  0.
   234  2.3300  0.  0.
   235  2.3400  0.  0.
   236  2.3500  0.  0.
   237  2.3600  0.  0.
   238  2.3700  0.  0.
   239  2.3800  0.  0.
   240  2.3900  0.  0.
   241  2.4000  0.  0.
   242  2.4100  0.  0.
   243  2.4200  0.  0.
   244  2.4300  0.  0.
   245  2.4400  0.  0.
   246  2.4500  0.  0.
   247  2.4600  0.  0.
   248  2.4700  0.  0.
   249  2.4800  0.  0.
   250  2.4900  0.  0.
   251  2.5000  0.  0.
   252  2.5100  0.  0.
   253  2.5200  0.  0.
   254  2.5300  0.  0.
   255  2.5400  0.  0.
   256  2.5500  0.  0.
   257  2.5600  0.  0.
   258  2.5700  0.  0.
   259  2.5800  0.  0.
   260  2.5900  0.  0.
   261  2.6000  0.  0.
   262  2.6100  0.  0.
   263  2.6200  0.  0.
   264  2.6300  0.  0.
   265  2.6400  0.  0.
   266  2.6500  0.  0.
   267  2.6600  0.  0.
   268  2.6700  0.  0.
   269  2.6800  0.  0.
   270  2.6900  0.  0.
   271  2.7000  0.  0.
   272  2.7100  0.  0.
   273  2.7200  0.  0.
   274  2.7300  0.  0.
   275  2.7400  0.  0.
   276  2.7500  0.  0.
   277  2.7600  0.  0.
   278  2.7700  0.  0.
   279  2.7800  0.  0.
   280  2.7900  0.  0.
   281  2.8000  0.  0.
   282  2.8100  0.  0.
   283  2.8200  0.  0.
   284  2.8300  0.  0.
   285  2.8400  0.  0.
   286  2.8500  0.  0.
   287  2.8600  0.  0.
   288  2.8700  0.  0.
   289  2.8800  0.  0.
   290  2.8900  0.  0.
   291  2.9000  0.  0.
   292  2.9100  0.  0.
   293  2.9200  0.  0.
   294  2.9300  0.  0.
   295  2.9400  0.  0.
   296  2.9500  0.  0.
   297  2.9600  0.  0.
   298  2.9700  0.  0.
   299  2.9800  0.  0.
   300  2.9900  0.  0.
   301  3.0000  0.  0.
   302  3.0100  0.  0.
   303  3.0200  0.  0.
   304  3.0300  0.  0.
   305  3.0400  0.  0.
   306  3.0500  0.  0.
   307  3.0600  0.  0.
   308  3.0700  0.  0.
   309  3.0800  0.  0.
   310  3.0900  0.  0.
   311  3.1000  0.  0.
   312  3.1100  0.  0.
   313  3.1200  0.  0.
   314  3.1300  0.  0.
   315  3.1400  0.  0.
   316  3.1500  0.  0.
   317  3.1600  0.  0.
   318  3.1700  0.  0.
   319  3.1800  0.  0.
   320  3.1900  0.  0.
   321  3.2000  0.  0.
   322  3.2100  0.  0.
   323  3.2200  0.  0.
   324  3.2300  0.  0.
   325  3.2400  0.  0.
   326  3.2500  0.  0.
   327  3.2600  0.  0.
   328  3.2700  0.  0.
   329  3.2800  0.  0.
   330  3.2900  0.  0.
   331  3.3000  0.  0.
   332  3.3100  0.  0.
   333  3.3200  0.  0.
   334  3.3300  0.  0.
   335  3.3400  0.  0.
   336  3.3500  0.  0.
   337  3.3600  0.  0.
   338  3.3700  0.  0.
   339  3.3800  0.  0.
   340  3.3900  0.  0.
   341  3.4000  0.  0.
   342  3.4100  0.  0.
   343  3.4200  0.  0.
   344  3.4300  0.  0.
   345  3.4400  0.  0.
   346  3.4500  0.  0.
   347  3.4600  0.  0.
   348  3.4700  0.  0.
   349  3.4800  0.  0.
   350  3.4900  0.  0.
   351  3.5000  0.  0.
   352  3.5100  0.  0.
   353  3.5200  0.  0.
   354  3.5300  0.  0.
   355  3.5400  0.  0.
   356  3.5500  0.  0.
   357  3.5600  0.  0.
   358  3.5700  0.  0.
   359  3.5800  0.  0.
   360  3.5900  0.  0.
   361  3.6000  0.  0.
   362  3.6100  0.  0.
   363  3.6200  0.  0.
   364  3.6300  0.  0.
   365  3.6400  0.  0.
   366  3.6500  0.  0.
   367  3.6600  0.  0.
   368  3.6700  0.  0.
   369  3.6800  0.  0.
   370  3.6900  0.  0.
   371  3.7000  0.  0.
   372  3.7100  0.  0.
   373  3.7200  0.  0.
   374  3.7300  0.  0.
   375  3.7400  0.  0.
   376  3.7500  0.  0.
   377  3.7600  0.  0.
   378  3.7700  0.  0.
   379  3.7800  0.  0.
   380  3.7900  0.  0.
   381  3.8000  0.  0.
   382  3.8100  0.  0.
   383  3.8200  0.  0.
   384  3.8300  0.  0.
   385  3.8400  0.  0.
   386  3.8500  0.  0.
   387  3.8600  0.  0.
   388  3.8700  0.  0.
   389  3.8800  0.  0.
   390  3.8900  0.  0.
   391  3.9000  0.  0.
   392  3.9100  0.  0.
   393  3.9200  0.  0.
   394  3.9300  0.  0.
   395  3.9400  0.  0.
   396  3.9500  0.  0.
   397  3.9600  0.  0.
   398  3.9700  0.  0.
   399  3.9800  0.  0.
   400  3.9900  0.  0.
   401  4.0000  0.  0.
   402  4.0100  0.  0.
   403  4.0200  0.  0.
   404  4.0300  0.  0.
   405  4.0400  0.  0.
   406  4.0500  0.  0.
   407  4.0600  0.  0.
   408  4.0700  0.  0.
   409  4.0800  0.  0.
   410  4.0900  0.  0.
   411  4.1000  0.  0.
   412  4.1100  0.  0.
   413  4.1200  0.  0.
   414  4.1300  0.  0.
   415  4.1400  0.  0.
   416  4.1500  0.  0.
   417  4.1600  0.  0.
   418  4.1700  0.  0.
   419  4.1800  0.  0.
   420  4.1900  0.  0.
   421  4.2000  0.  0.
   422  4.2100  0.  0.
   423  4.2200  0.  0.
   424  4.2300  0.  0.
   425  4.2400  0.  0.
   426  4.2500  0.  0.
   427  4.2600  0.  0.
   428  4.2700  0.  0.
   429  4.2800  0.  0.
   430  4.2900  0.  0.
   431  4.3000  0.  0.
   432  4.3100  0.  0.
   433  4.3200  0.  0.
   434  4.3300  0.  0.
   435  4.3400  0.  0.
   436  4.3500  0.  0.
   437  4.3600  0.  0.
   438  4.3700  0.  0.
   439  4.3800  0.  0.
   440  4.3900  0.  0.
   441  4.4000  0.  0.
   442  4.4100  0.  0.
   443  4.4200  0.  0.
   444  4.4300  0.  0.
   445  4.4400  0.  0.
   446  4.4500  0.  0.
   447  4.4600  0.  0.
   448  4.4700  0.  0.
   449  4.4800  0.  0.
   450  4.4900  0.  0.
   451  4.5000  0.  0.
   452  4.5100  0.  0.
   453  4.5200  0.  0.
   454  4.5300  0.  0.
   455  4.5400  0.  0.
   456  4.5500  0.  0.
   457  4.5600  0.  0.
   458  4.5700  0.  0.
   459  4.5800  0.  0.
   460  4.5900  0.  0.
   461  4.6000  0.  0.
   462  4.6100  0.  0.
   463  4.6200  0.  0.
   464  4.6300  0.  0.
   465  4.6400  0.  0.
   466  4.6500  0.  0.
   467  4.6600  0.  0.
   468  4.6700  0.  0.
   469  4.6800  0.  0.
   470  4.6900  0.  0.
   471  4.7000  0.  0.
   472  4.7100  0.  0.
   473  4.7200  0.  0.
   474  4.7300  0.  0.
   475  4.7400  0.  0.
   476  4.7500  0.  0.
   477  4.7600  0.  0.
   478  4.7700  0.  0.
   479  4.7800  0.  0.
   480  4.7900  0.  0.
   481  4.8000  0.  0.
   482  4.8100  0.  0.
   483  4.8200  0.  0.
   484  4.8300  0.  0.
   485  4.8400  0.  0.
   486  4.8500  0.  0.
   487  4.8600  0.  0.
   488  4.8700  0.  0.
   489  4.8800  0.  0.
   490  4.8900  0.  0.
   491  4.9000  0.  0.
   492  4.9100  0.  0.
   493  4.9200  0.  0.
   494  4.9300  0.  0.
   495  4.9400  0.  0.
   496  4.9500  0.  0.
   497  4.9600  0.  0.
   498  4.9700  0.  0.
   499  4.9800  0.  0.
   500  4.9900  0.  0.
   501  5.0000  0.  0.
   502  5.0100  0.  0.
   503  5.0200  0.  0.
   504  5.0300  0.  0.
   505  5.0400  0.  0.
   506  5.0500  0.  0.
   507  5.0600  0.  0.
   508  5.0700  0.  0.
   509  5.0800  0.  0.
   510  5.0900  0.  0.
   511  5.1000  0.  0.
   512  5.1100  0.  0.
   513  5.1200  0.  0.
   514  5.1300  0.  0.
   515  5.1400  0.  0.
   516  5.1500  0.  0.
   517  5.1600  0.  0.
   518  5.1700  0.  0.
   519  5.1800  0.  0.
   520  5.1900  0.  0.
   521  5.2000  0.  0.
   522  5.2100  0.  0.
   523  5.2200  0.  0.
   524  5.2300  0.  0.
   525  5.2400  0.  0.
   526  5.2500  0.  0.
   527  5.2600  0.  0.
   528  5.2700  0.  0.
   529  5.2800  0.  0.
   530  5.2900  0.  0.
   531  5.3000  0.  0.
   532  5.3100  0.  0.
   533  5.3200  0.  0.
   534  5.3300  0.  0.
   535  5.3400  0.  0.
   536  5.3500  0.  0.
   537  5.3600  0.  0.
   538  5.3700  0.  0.
   539  5.3800  0.  0.
   540  5.3900  0.  0.
   541  5.4000  0.  0.
   542  5.4100  0.  0.
   543  5.4200  0.  0.
   544  5.4300  0.  0.
   545  5.4400  0.  0.
   546  5.4500  0.  0.
   547  5.4600  0.  0.
   548  5.4700  0.  0.
   549  5.4800  0.  0.
   550  5.4900  0.  0.
   551  5.5000  0.  0.
   552  5.5100  0.  0.
   553  5.5200  0.  0.
   554  5.5300  0.  0.
   555  5.5400  0.  0.
   556  5.5500  0.  0.
   557  5.5600  0.  0.
   558  5.5700  0.  0.
   559  5.5800  0.  0.
   560  5.5900  0.  0.
   561  5.6000  0.  0.
   562  5.6100  0.  0.
   563  5.6200  0.  0.
   564  5.6300  0.  0.
   565  5.6400  0.  0.
   566  5.6500  0.  0.
   567  5.6600  0.  0.
   568  5.6700  0.  0.
   569  5.6800  0.  0.
   570  5.6900  0.  0.
   571  5.7000  0.  0.
   572  5.7100  0.  0.
   573  5.7200  0.  0.
   574  5.7300  0.  0.
   575  5.7400  0.  0.
   576  5.7500  0.  0.
   577  5.7600  0.  0.
   578  5.7700  0.  0.
   579  5.7800  0.  0.
   580  5.7900  0.  0.
   581  5.8000  0.  0.
   582  5.8100  0.  0.
   583  5.8200  0.  0.
   584  5.8300  0.  0.
   585  5.8400  0.  0.
   586  5.8500  0.  0.
   587  5.8600  0.  0.
   588  5.8700  0.  0.
   589  5.8800  0.  0.
   590  5.8900  0.  0.
   591  5.9000  0.  0.
   592  5.9100  0.  0.
   593  5.9200  0.  0.
   594  5.9300  0.  0.
   595  5.9400  0.  0.
   596  5.9500  0.  0.
   597  5.9600  0.  0.
   598  5.9700  0.  0.
   599  5.9800  0.  0.
   600  5.9900  0.  0.
   1                        -6.0949039872835E+00 -1.1214230303033E+00
     1  0.0000000000000E+00 -8.9971596839433E-10  9.4445915671537E-10
     2  1.0000000000000E-02 -2.0716542187308E-03  9.5654328346711E-04
     3  2.0000000000000E-02 -8.2733597271943E-03  3.8173547542698E-03
     4  3.0000000000000E-02 -1.8565423528577E-02  8.5560480080335E-03
     5  4.0000000000000E-02 -3.2881951643020E-02  1.5128874318681E-02
     6  5.0000000000000E-02 -5.1131238976979E-02  2.3475063813430E-02
     7  6.0000000000000E-02 -7.3196311845065E-02  3.3517299636663E-02
     8  7.0000000000000E-02 -9.8935619873693E-02  4.5162321651179E-02
     9  8.0000000000000E-02 -1.2818387311619E-01  5.8301655280872E-02
    10  9.0000000000000E-02 -1.6075301933525E-01  7.2812460185713E-02
    11  1.0000000000000E-01 -1.9643335556624E-01  8.8558492584038E-02
    12  1.1000000000000E-01 -2.3499476726860E-01  1.0539117420505E-01
    13  1.2000000000000E-01 -2.7618808760825E-01  1.2315076007185E-01
    14  1.3000000000000E-01 -3.1974656869539E-01  1.4166759658785E-01
    15  1.4000000000000E-01 -3.6538745593432E-01  1.6076346073224E-01
    16  1.5000000000000E-01 -4.1281365602875E-01  1.8025297056828E-01
    17  1.6000000000000E-01 -4.6171548863164E-01  1.9994505673513E-01
    18  1.7000000000000E-01 -5.1177251113565E-01  2.1964448413488E-01
    19  1.8000000000000E-01 -5.6265540567261E-01  2.3915341264312E-01
    20  1.9000000000000E-01 -6.1402791702970E-01  2.5827298536803E-01
    21  2.0000000000000E-01 -6.6554882989969E-01  2.7680493276078E-01
    22  2.1000000000000E-01 -7.1687397366261E-01  2.9455318074144E-01
    23  2.2000000000000E-01 -7.6765824274979E-01  3.1132545094991E-01
    24  2.3000000000000E-01 -8.1755762056750E-01  3.2693484126213E-01
    25  2.4000000000000E-01 -8.6623119495805E-01  3.4120137482687E-01
    26  2.5000000000000E-01 -9.1334315325002E-01  3.5395350607762E-01
    27  2.6000000000000E-01 -9.5856474509648E-01  3.6502957245652E-01
    28  2.7000000000000E-01 -1.0015762015193E+00  3.7427918094973E-01
    29  2.8000000000000E-01 -1.0420685988669E+00  3.8156451897595E-01
    30  2.9000000000000E-01 -1.0797456567525E+00  3.8676157968596E-01
    31  3.0000000000000E-01 -1.1143254594609E+00  3.8976129232087E-01
    32  3.1000000000000E-01 -1.1455420908061E+00  3.9047054893308E-01
    33  3.2000000000000E-01 -1.1731471729616E+00  3.8881311949460E-01
    34  3.3000000000000E-01 -1.1969113003998E+00  3.8473044819578E-01
    35  3.4000000000000E-01 -1.2166253607252E+00  3.7818232456956E-01
    36  3.5000000000000E-01 -1.2321017349000E+00  3.6914742395462E-01
    37  3.6000000000000E-01 -1.2431753701057E+00  3.5762371273102E-01
    38  3.7000000000000E-01 -1.2497047192762E+00  3.4362871471624E-01
    39  3.8000000000000E-01 -1.2515725421609E+00  3.2719963609155E-01
    40  3.9000000000000E-01 -1.2486865636274E+00  3.0839334723206E-01
    41  4.0000000000000E-01 -1.2409799857917E+00  2.8728622083080E-01
    42  4.1000000000000E-01 -1.2284118514539E+00  2.6397382673083E-01
    43  4.2000000000000E-01 -1.2109672572276E+00  2.3857048490265E-01
    44  4.3000000000000E-01 -1.1886574156595E+00  2.1120867901976E-01
    45  4.4000000000000E-01 -1.1615195665517E+00  1.8203833408534E-01
    46  4.5000000000000E-01 -1.1296167386059E+00  1.5122596254175E-01
    47  4.6000000000000E-01 -1.0930373634076E+00  1.1895368424383E-01
    48  4.7000000000000E-01 -1.0518947446481E+00  8.5418126590721E-02
    49  4.8000000000000E-01 -1.0063263863441E+00  5.0829211982464E-02
    50  4.9000000000000E-01 -9.5649318464549E-01  1.5408840590792E-02
    51  5.0000000000000E-01 -9.0257848862416E-01 -2.0610522797269E-02
    52  5.1000000000000E-01 -8.4478703619972E-01 -5.6987348395132E-02
    53  5.2000000000000E-01 -7.8334377208130E-01 -9.3472617378662E-02
    54  5.3000000000000E-01 -7.1849255528037E-01 -1.2981146350578E-01
    55  5.4000000000000E-01 -6.5049476437708E-01 -1.6574486920197E-01
    56  5.5000000000000E-01 -5.7962780929577E-01 -2.0101140449388E-01
    57  5.6000000000000E-01 -5.0618355886181E-01 -2.3534899682610E-01
    58  5.7000000000000E-01 -4.3046669386954E-01 -2.6849671953144E-01
    59  5.8000000000000E-01 -3.5279299578552E-01 -3.0019658654281E-01
    60  5.9000000000000E-01 -2.7348758154260E-01 -3.3019534083818E-01
    61  6.0000000000000E-01 -1.9288309514516E-01 -3.5824622409755E-01
    62  6.1000000000000E-01 -1.1131786700388E-01 -3.8411071512357E-01
    63  6.2000000000000E-01 -2.9134052049001E-02 -4.0756022473430E-01
    64  6.3000000000000E-01  5.3324242267082E-02 -4.2837773507587E-01
    65  6.4000000000000E-01  1.3571282697211E-01 -4.4635937162261E-01
    66  6.5000000000000E-01  2.1768929054884E-01 -4.6131589653021E-01
    67  6.6000000000000E-01  2.9891483498891E-01 -4.7307411248053E-01
    68  6.7000000000000E-01  3.7905607823634E-01 -4.8147816670002E-01
    69  6.8000000000000E-01  4.5778681259813E-01 -4.8639074544489E-01
    70  6.9000000000000E-01  5.3478970902704E-01 -4.8769414991864E-01
    71  7.0000000000000E-01  6.0975795756740E-01 -4.8529124531770E-01
    72  7.1000000000000E-01  6.8239683469524E-01 -4.7910627548171E-01
    73  7.2000000000000E-01  7.5242518877652E-01 -4.6908553645201E-01
    74  7.3000000000000E-01  8.1957683540779E-01 -4.5519790310747E-01
    75  7.4000000000000E-01  8.8360185498754E-01 -4.3743520394545E-01
    76  7.5000000000000E-01  9.4426778549164E-01 -4.1581244000038E-01
    77  7.6000000000000E-01  1.0013607040855E+00 -3.9036784483599E-01
    78  7.7000000000000E-01  1.0546861918968E+00 -3.6116278350336E-01
    79  7.8000000000000E-01  1.1040701769890E+00 -3.2828148931795E-01
    80  7.9000000000000E-01  1.1493596513154E+00 -2.9183063826799E-01
    81  8.0000000000000E-01  1.1904232581856E+00 -2.5193876181737E-01
    82  8.1000000000000E-01  1.2271517475448E+00 -2.0875549980084E-01
    83  8.2000000000000E-01  1.2594582971365E+00 -1.6245069602220E-01
    84  8.3000000000000E-01  1.2872786983926E+00 -1.1321334005030E-01
    85  8.4000000000000E-01  1.3105714066658E+00 -6.1250359556745E-02
    86  8.5000000000000E-01  1.3293174561781E+00 -6.7852683479474E-03
    87  8.6000000000000E-01  1.3435202408082E+00  4.9943323993237E-02
    88  8.7000000000000E-01  1.3532051625702E+00  1.0868333422998E-01
    89  8.8000000000000E-01  1.3584191503417E+00  1.6917095207601E-01
    90  8.9000000000000E-01  1.3592300520817E+00  2.3113250340471E-01
    91  9.0000000000000E-01  1.3557259044273E+00  2.9428642165353E-01
    92  9.1000000000000E-01  1.3480140841737E+00  3.5834531854930E-01
    93  9.2000000000000E-01  1.3362203467215E+00  4.2301814488432E-01
    94  9.3000000000000E-01  1.3204877571081E+00  4.8801243174897E-01
    95  9.4000000000000E-01  1.3009755197380E+00  5.5303660237508E-01
    96  9.5000000000000E-01  1.2778577133691E+00  6.1780234456695E-01
    97  9.6000000000000E-01  1.2513219383121E+00  6.8202703359309E-01
    98  9.7000000000000E-01  1.2215678831485E+00  7.4543619538247E-01
    99  9.8000000000000E-01  1.1888058185678E+00  8.0776599991235E-01
   100  9.9000000000000E-01  1.1532550261689E+00  8.6876577478970E-01
   101  1.0000000000000E+00  1.1151421702603E+00  9.2820052921329E-01
   102  1.0100000000000E+00  1.0746996211529E+00  9.8585347976262E-01
   103  1.0200000000000E+00  1.0321637356444E+00  1.0415285608917E+00
   104  1.0300000000000E+00  9.8777291910515E-01  1.0950523925154E+00
   105  1.0400000000000E+00  9.4176372292872E-01  1.1462699797744E+00
   106  1.0500000000000E+00  8.9436750064837E-01  1.1950387913995E+00
   107  1.0600000000000E+00  8.4580967952112E-01  1.2412283069300E+00