Cu    ONCVPSP-4.0.1  r_core=   1.68769   1.90218   1.90218
     29.0000     19.0000      220722    zatom,zion,pspd
     8      11   2     4   600     0    pspcod,pspxc,lmax,lloc,mmax,r2well
  5.99000000  3.50000000  0.00000000    rchrg fchrg qchrg
     2     2     2     0     0    nproj
     1     1           extension_switch
   0                        -3.0713613996419E+00  3.0353192063248E+00
     1  0.0000000000000E+00 -4.4238501750726E-12  1.5001444531038E-11
     2  1.0000000000000E-02  4.2020094313121E-02  8.9145816965607E-02
     3  2.0000000000000E-02  8.4001006176666E-02  1.7794298014662E-01
     4  3.0000000000000E-02  1.2590357823351E-01  2.6604422419722E-01
     5  4.0000000000000E-02  1.6768870335259E-01  3.5310505597876E-01
     6  5.0000000000000E-02  2.0931734984594E-01  4.3878512898285E-01
     7  6.0000000000000E-02  2.5075058681396E-01  5.2274960372445E-01
     8  7.0000000000000E-02  2.9194960966702E-01  6.0467048940793E-01
     9  8.0000000000000E-02  3.3287576587602E-01  6.8422796215376E-01
    10  9.0000000000000E-02  3.7349058100989E-01  7.6111165505808E-01
    11  1.0000000000000E-01  4.1375578512382E-01  8.3502191534336E-01
    12  1.1000000000000E-01  4.5363333956857E-01  9.0567102384826E-01
    13  1.2000000000000E-01  4.9308546429794E-01  9.7278437210143E-01
    14  1.3000000000000E-01  5.3207466575791E-01  1.0361015922297E+00
    15  1.4000000000000E-01  5.7056376544777E-01  1.0953776349702E+00
    16  1.5000000000000E-01  6.0851592924925E-01  1.1503837910894E+00
    17  1.6000000000000E-01  6.4589469762481E-01  1.2009086515655E+00
    18  1.7000000000000E-01  6.8266401679052E-01  1.2467590019665E+00
    19  1.8000000000000E-01  7.1878827097148E-01  1.2877606465538E+00
    20  1.9000000000000E-01  7.5423231584922E-01  1.3237591577744E+00
    21  2.0000000000000E-01  7.8896151330963E-01  1.3546205469560E+00
    22  2.1000000000000E-01  8.2294176759756E-01  1.3802318522210E+00
    23  2.2000000000000E-01  8.5613956297937E-01  1.4005016398517E+00
    24  2.3000000000000E-01  8.8852200300740E-01  1.4153604156127E+00
    25  2.4000000000000E-01  9.2005685147084E-01  1.4247609428299E+00
    26  2.5000000000000E-01  9.5071257510510E-01  1.4286784643706E+00
    27  2.6000000000000E-01  9.8045838811713E-01  1.4271108260456E+00
    28  2.7000000000000E-01  1.0092642985665E+00  1.4200784993708E+00
    29  2.8000000000000E-01  1.0371011566222E+00  1.4076245020811E+00
    30  2.9000000000000E-01  1.0639407046929E+00  1.3898142152752E+00
    31  3.0000000000000E-01  1.0897556294033E+00  1.3667350965960E+00
    32  3.1000000000000E-01  1.1145196153622E+00  1.3384962894012E+00
    33  3.2000000000000E-01  1.1382074006404E+00  1.3052281284578E+00
    34  3.3000000000000E-01  1.1607948338449E+00  1.2670815432974E+00
    35  3.4000000000000E-01  1.1822589326437E+00  1.2242273609888E+00
    36  3.5000000000000E-01  1.2025779435662E+00  1.1768555107177E+00
    37  3.6000000000000E-01  1.2217314028663E+00  1.1251741332040E+00
    38  3.7000000000000E-01  1.2397001982059E+00  1.0694085986324E+00
    39  3.8000000000000E-01  1.2564666308829E+00  1.0098004374082E+00
    40  3.9000000000000E-01  1.2720144782922E+00  9.4660618868216E-01
    41  4.0000000000000E-01  1.2863290562831E+00  8.8009617219800E-01
    42  4.1000000000000E-01  1.2993972810411E+00  8.1055318960471E-01
    43  4.2000000000000E-01  1.3112077300999E+00  7.3827116193679E-01
    44  4.3000000000000E-01  1.3217507020608E+00  6.6355371048499E-01
    45  4.4000000000000E-01  1.3310182745777E+00  5.8671268876218E-01
    46  4.5000000000000E-01  1.3390043601468E+00  5.0806667369969E-01
    47  4.6000000000000E-01  1.3457047592261E+00  4.2793942458700E-01
    48  4.7000000000000E-01  1.3511172101983E+00  3.4665831858682E-01
    49  4.8000000000000E-01  1.3552414356872E+00  2.6455277191163E-01
    50  4.9000000000000E-01  1.3580791847352E+00  1.8195265593590E-01
    51  5.0000000000000E-01  1.3596342703537E+00  9.9186717633616E-02
    52  5.1000000000000E-01  1.3599126019674E+00  1.6581013773945E-02
    53  5.2000000000000E-01  1.3589222122884E+00 -6.5542631725102E-02
    54  5.3000000000000E-01  1.3566732781744E+00 -1.4686813799492E-01
    55  5.4000000000000E-01  1.3531781350505E+00 -2.2708663586220E-01
    56  5.5000000000000E-01  1.3484512845047E+00 -3.0589788610098E-01
    57  5.6000000000000E-01  1.3425093946998E+00 -3.8301163878644E-01
    58  5.7000000000000E-01  1.3353712932872E+00 -4.5814892565584E-01
    59  5.8000000000000E-01  1.3270579525477E+00 -5.3104327786106E-01
    60  5.9000000000000E-01  1.3175924665365E+00 -6.0144186204168E-01
    61  6.0000000000000E-01  1.3070000200582E+00 -6.6910652825293E-01
    62  6.1000000000000E-01  1.2953078493539E+00 -7.3381476394312E-01
    63  6.2000000000000E-01  1.2825451944397E+00 -7.9536054888541E-01
    64  6.3000000000000E-01  1.2687432430953E+00 -8.5355510672097E-01
    65  6.4000000000000E-01  1.2539350665628E+00 -9.0822754955825E-01
    66  6.5000000000000E-01  1.2381555470780E+00 -9.5922541288941E-01
    67  6.6000000000000E-01  1.2214412974191E+00 -1.0064150789198E+00
    68  6.7000000000000E-01  1.2038305727192E+00 -1.0496820872539E+00
    69  6.8000000000000E-01  1.1853631748523E+00 -1.0889313327313E+00
    70  6.9000000000000E-01  1.1660803497575E+00 -1.1240871510526E+00
    71  7.0000000000000E-01  1.1460246781301E+00 -1.1550932936652E+00
    72  7.1000000000000E-01  1.1252399599552E+00 -1.1819127941911E+00
    73  7.2000000000000E-01  1.1037710934178E+00 -1.2045277294574E+00
    74  7.3000000000000E-01  1.0816639487624E+00 -1.2229388789358E+00
    75  7.4000000000000E-01  1.0589652377252E+00 -1.2371652870931E+00
    76  7.5000000000000E-01  1.0357223791925E+00 -1.2472437338067E+00
    77  7.6000000000000E-01  1.0119833617755E+00 -1.2532281185845E+00
    78  7.7000000000000E-01  9.8779660401462E-01 -1.2551887648633E+00
    79  7.8000000000000E-01  9.6321081294774E-01 -1.2532116511154E+00
    80  7.9000000000000E-01  9.3827484178971E-01 -1.2473975758873E+00
    81  8.0000000000000E-01  9.1303754747789E-01 -1.2378612642104E+00
    82  8.1000000000000E-01  8.8754764883852E-01 -1.2247304230657E+00
    83  8.2000000000000E-01  8.6185358612273E-01 -1.2081447537455E+00
    84  8.3000000000000E-01  8.3600338264876E-01 -1.1882549290493E+00
    85  8.4000000000000E-01  8.1004450926743E-01 -1.1652215432530E+00
    86  8.5000000000000E-01  7.8402375234362E-01 -1.1392140427356E+00
    87  8.6000000000000E-01  7.5798708591500E-01 -1.1104096450036E+00
    88  8.7000000000000E-01  7.3197954865344E-01 -1.0789922536526E+00
    89  8.8000000000000E-01  7.0604512621313E-01 -1.0451513765320E+00
    90  8.9000000000000E-01  6.8022663950325E-01 -1.0090810540495E+00
    91  9.0000000000000E-01  6.5456563937375E-01 -9.7097880416350E-01
    92  9.1000000000000E-01  6.2910230814870E-01 -9.3104459017840E-01
    93  9.2000000000000E-01  6.0387536838617E-01 -8.8947981697819E-01
    94  9.3000000000000E-01  5.7892199918468E-01 -8.4648636082067E-01
    95  9.4000000000000E-01  5.5427776029648E-01 -8.0226563727220E-01
    96  9.5000000000000E-01  5.2997652424707E-01 -7.5701771129898E-01
    97  9.6000000000000E-01  5.0605041659914E-01 -7.1094045295372E-01
    98  9.7000000000000E-01  4.8252976443849E-01 -6.6422874151224E-01
    99  9.8000000000000E-01  4.5944305309995E-01 -6.1707372033214E-01
   100  9.9000000000000E-01  4.3681689109321E-01 -5.6966210413030E-01
   101  1.0000000000000E+00  4.1467598313319E-01 -5.2217553981670E-01
   102  1.0100000000000E+00  3.9304311112643E-01 -4.7479002148305E-01
   103  1.0200000000000E+00  3.7193912291587E-01 -4.2767535963421E-01
   104  1.0300000000000E+00  3.5138292854078E-01 -3.8099470427170E-01
   105  1.0400000000000E+00  3.3139150372692E-01 -3.3490412099819E-01
   106  1.0500000000000E+00  3.1197990028564E-01 -2.8955221891377E-01
   107  1.0600000000000E+00  2.9316126306821E-01 -2.4507982871995E-01
   108  1.0700000000000E+00  2.7494685309509E-01 -2.0161972914367E-01
   109  1.0800000000000E+00  2.5734607645760E-01 -1.5929641953634E-01
   110  1.0900000000000E+00  2.4036651857333E-01 -1.1822593629923E-01
   111  1.1000000000000E+00  2.2401398336490E-01 -7.8515710632570E-02
   112  1.1100000000000E+00  2.0829253692573E-01 -4.0264465003211E-02
   113  1.1200000000000E+00  1.9320455523499E-01 -3.5621456723525E-03
   114  1.1300000000000E+00  1.7875077548773E-01  3.1510111380936E-02
   115  1.1400000000000E+00  1.6493035061403E-01  6.4879983765489E-02
   116  1.1500000000000E+00  1.5174090657331E-01  9.6483937757991E-02
   117  1.1600000000000E+00  1.3917860202617E-01  1.2626717758342E-01
   118  1.1700000000000E+00  1.2723819000524E-01  1.5418357117160E-01
   119  1.1800000000000E+00  1.1591308122919E-01  1.8019555448554E-01
   120  1.1900000000000E+00  1.0519540872857E-01  2.0427401631488E-01
   121  1.2000000000000E+00  9.5076093479240E-02  2.2639816520690E-01
   122  1.2100000000000E+00  8.5544910766654E-02  2.4655537997607E-01
   123  1.2200000000000E+00  7.6590557033996E-02  2.6474104499293E-01
   124  1.2300000000000E+00  6.8200716995792E-02  2.8095837121504E-01
   125  1.2400000000000E+00  6.0362130828189E-02  2.9521820368685E-01
   126  1.2500000000000E+00  5.3060661275356E-02  3.0753881601119E-01
   127  1.2600000000000E+00  4.6281360538710E-02  3.1794569208612E-01
   128  1.2700000000000E+00  4.0008536841466E-02  3.2647129521071E-01
   129  1.2800000000000E+00  3.4225820584529E-02  3.3315482449851E-01
   130  1.2900000000000E+00  2.8916230031095E-02  3.3804195840011E-01
   131  1.3000000000000E+00  2.4062236475895E-02  3.4118458502952E-01
   132  1.3100000000000E+00  1.9645828870688E-02  3.4264051891660E-01
   133  1.3200000000000E+00  1.5648577890036E-02  3.4247320377039E-01
   134  1.3300000000000E+00  1.2051699430702E-02  3.4075140083749E-01
   135  1.3400000000000E+00  8.8361175437901E-03  3.3754886247643E-01
   136  1.3500000000000E+00  5.9825268012050E-03  3.3294399064226E-01
   137  1.3600000000000E+00  3.4714540971969E-03  3.2701948008518E-01
   138  1.3700000000000E+00  1.2833198815669E-03  3.1986194621109E-01
   139  1.3800000000000E+00 -6.0150118605652E-04  3.1156153772861E-01
   140  1.3900000000000E+00 -2.2026201814788E-03  3.0221153441169E-01
   141  1.4000000000000E+00 -3.5395744940180E-03  2.9190793053896E-01
   142  1.4100000000000E+00 -4.6317690856152E-03  2.8074900482478E-01
   143  1.4200000000000E+00 -5.4984184959969E-03  2.6883487792647E-01
   144  1.4300000000000E+00 -6.1584896773692E-03  2.5626705889778E-01
   145  1.4400000000000E+00 -6.6306457615418E-03  2.4314798224741E-01
   146  1.4500000000000E+00 -6.9331908826884E-03  2.2958053755738E-01
   147  1.4600000000000E+00 -7.0840161993888E-03  2.1566759390577E-01
   148  1.4700000000000E+00 -7.1005472798072E-03  2.0151152162004E-01
   149  1.4800000000000E+00 -6.9996930335205E-03  1.8721371415678E-01
   150  1.4900000000000E+00 -6.7977963919817E-03  1.7287411315179E-01
   151  1.5000000000000E+00 -6.5105869566210E-03  1.5859073991086E-01
   152  1.5100000000000E+00 -6.1531358485931E-03  1.4445923680682E-01
   153  1.5200000000000E+00 -5.7398130070657E-03  1.3057242221338E-01
   154  1.5300000000000E+00 -5.2842471930210E-03  1.1701986273167E-01
   155  1.5400000000000E+00 -4.7992889628567E-03  1.0388746655260E-01
   156  1.5500000000000E+00 -4.2969768801610E-03  9.1257101841141E-02
   157  1.5600000000000E+00 -3.7885072348561E-03  7.9206244027991E-02
   158  1.5700000000000E+00 -3.2842075361511E-03  6.7807655845502E-02
   159  1.5800000000000E+00 -2.7935140588960E-03  5.7129104612342E-02
   160  1.5900000000000E+00 -2.3249535364551E-03  4.7233112661123E-02
   161  1.6000000000000E+00 -1.8861303296275E-03  3.8176804165575E-02
   162  1.6100000000000E+00 -1.4835759545808E-03  3.0006087992924E-02
   163  1.6200000000000E+00 -1.1227393918441E-03  2.2753772271650E-02
   164  1.6300000000000E+00 -8.0863984069971E-04  1.6467636410601E-02
   165  1.6400000000000E+00 -5.4495538711712E-04  1.1184237774032E-02
   166  1.6500000000000E+00 -3.3377915163610E-04  6.9248856776705E-03
   167  1.6600000000000E+00 -1.7565214650218E-04  3.6962876154655E-03
   168  1.6700000000000E+00 -6.9262844106295E-05  1.4835245435476E-03
   169  1.6800000000000E+00 -1.3143817592742E-05  2.8792073243891E-04
   170  1.6900000000000E+00  8.8901614624147E-07 -1.9803112486400E-05
   171  1.7000000000000E+00 -2.3049222460392E-07  5.0921878904889E-06
   172  1.7100  0. -0.
   173  1.7200  0. -0.
   174  1.7300  0.  0.
   175  1.7400  0.  0.
   176  1.7500  0.  0.
   177  1.7600  0.  0.
   178  1.7700  0.  0.
   179  1.7800  0.  0.
   180  1.7900  0.  0.
   181  1.8000  0.  0.
   182  1.8100  0.  0.
   183  1.8200  0.  0.
   184  1.8300  0.  0.
   185  1.8400  0.  0.
   186  1.8500  0.  0.
   187  1.8600  0.  0.
   188  1.8700  0.  0.
   189  1.8800  0.  0.
   190  1.8900  0.  0.
   191  1.9000  0.  0.
   192  1.9100  0.  0.
   193  1.9200  0.  0.
   194  1.9300  0.  0.
   195  1.9400  0.  0.
   196  1.9500  0.  0.
   197  1.9600  0.  0.
   198  1.9700  0.  0.
   199  1.9800  0.  0.
   200  1.9900  0.  0.
   201  2.0000  0.  0.
   202  2.0100  0.  0.
   203  2.0200  0.  0.
   204  2.0300  0.  0.
   205  2.0400  0.  0.
   206  2.0500  0.  0.
   207  2.0600  0.  0.
   208  2.0700  0.  0.
   209  2.0800  0.  0.
   210  2.0900  0.  0.
   211  2.1000  0.  0.
   212  2.1100  0.  0.
   213  2.1200  0.  0.
   214  2.1300  0.  0.
   215  2.1400  0.  0.
   216  2.1500  0.  0.
   217  2.1600  0.  0.
   218  2.1700  0.  0.
   219  2.1800  0.  0.
   220  2.1900  0.  0.
   221  2.2000  0.  0.
   222  2.2100  0.  0.
   223  2.2200  0.  0.
   224  2.2300  0.  0.
   225  2.2400  0.  0.
   226  2.2500  0.  0.
   227  2.2600  0.  0.
   228  2.2700  0.  0.
   229  2.2800  0.  0.
   230  2.2900  0.  0.
   231  2.3000  0.  0.
   232  2.3100  0.  0.
   233  2.3200  0.  0.
   234  2.3300  0.  0.
   235  2.3400  0.  0.
   236  2.3500  0.  0.
   237  2.3600  0.  0.
   238  2.3700  0.  0.
   239  2.3800  0.  0.
   240  2.3900  0.  0.
   241  2.4000  0.  0.
   242  2.4100  0.  0.
   243  2.4200  0.  0.
   244  2.4300  0.  0.
   245  2.4400  0.  0.
   246  2.4500  0.  0.
   247  2.4600  0.  0.
   248  2.4700  0.  0.
   249  2.4800  0.  0.
   250  2.4900  0.  0.
   251  2.5000  0.  0.
   252  2.5100  0.  0.
   253  2.5200  0.  0.
   254  2.5300  0.  0.
   255  2.5400  0.  0.
   256  2.5500  0.  0.
   257  2.5600  0.  0.
   258  2.5700  0.  0.
   259  2.5800  0.  0.
   260  2.5900  0.  0.
   261  2.6000  0.  0.
   262  2.6100  0.  0.
   263  2.6200  0.  0.
   264  2.6300  0.  0.
   265  2.6400  0.  0.
   266  2.6500  0.  0.
   267  2.6600  0.  0.
   268  2.6700  0.  0.
   269  2.6800  0.  0.
   270  2.6900  0.  0.
   271  2.7000  0.  0.
   272  2.7100  0.  0.
   273  2.7200  0.  0.
   274  2.7300  0.  0.
   275  2.7400  0.  0.
   276  2.7500  0.  0.
   277  2.7600  0.  0.
   278  2.7700  0.  0.
   279  2.7800  0.  0.
   280  2.7900  0.  0.
   281  2.8000  0.  0.
   282  2.8100  0.  0.
   283  2.8200  0.  0.
   284  2.8300  0.  0.
   285  2.8400  0.  0.
   286  2.8500  0.  0.
   287  2.8600  0.  0.
   288  2.8700  0.  0.
   289  2.8800  0.  0.
   290  2.8900  0.  0.
   291  2.9000  0.  0.
   292  2.9100  0.  0.
   293  2.9200  0.  0.
   294  2.9300  0.  0.
   295  2.9400  0.  0.
   296  2.9500  0.  0.
   297  2.9600  0.  0.
   298  2.9700  0.  0.
   299  2.9800  0.  0.
   300  2.9900  0.  0.
   301  3.0000  0.  0.
   302  3.0100  0.  0.
   303  3.0200  0.  0.
   304  3.0300  0.  0.
   305  3.0400  0.  0.
   306  3.0500  0.  0.
   307  3.0600  0.  0.
   308  3.0700  0.  0.
   309  3.0800  0.  0.
   310  3.0900  0.  0.
   311  3.1000  0.  0.
   312  3.1100  0.  0.
   313  3.1200  0.  0.
   314  3.1300  0.  0.
   315  3.1400  0.  0.
   316  3.1500  0.  0.
   317  3.1600  0.  0.
   318  3.1700  0.  0.
   319  3.1800  0.  0.
   320  3.1900  0.  0.
   321  3.2000  0.  0.
   322  3.2100  0.  0.
   323  3.2200  0.  0.
   324  3.2300  0.  0.
   325  3.2400  0.  0.
   326  3.2500  0.  0.
   327  3.2600  0.  0.
   328  3.2700  0.  0.
   329  3.2800  0.  0.
   330  3.2900  0.  0.
   331  3.3000  0.  0.
   332  3.3100  0.  0.
   333  3.3200  0.  0.
   334  3.3300  0.  0.
   335  3.3400  0.  0.
   336  3.3500  0.  0.
   337  3.3600  0.  0.
   338  3.3700  0.  0.
   339  3.3800  0.  0.
   340  3.3900  0.  0.
   341  3.4000  0.  0.
   342  3.4100  0.  0.
   343  3.4200  0.  0.
   344  3.4300  0.  0.
   345  3.4400  0.  0.
   346  3.4500  0.  0.
   347  3.4600  0.  0.
   348  3.4700  0.  0.
   349  3.4800  0.  0.
   350  3.4900  0.  0.
   351  3.5000  0.  0.
   352  3.5100  0.  0.
   353  3.5200  0.  0.
   354  3.5300  0.  0.
   355  3.5400  0.  0.
   356  3.5500  0.  0.
   357  3.5600  0.  0.
   358  3.5700  0.  0.
   359  3.5800  0.  0.
   360  3.5900  0.  0.
   361  3.6000  0.  0.
   362  3.6100  0.  0.
   363  3.6200  0.  0.
   364  3.6300  0.  0.
   365  3.6400  0.  0.
   366  3.6500  0.  0.
   367  3.6600  0.  0.
   368  3.6700  0.  0.
   369  3.6800  0.  0.
   370  3.6900  0.  0.
   371  3.7000  0.  0.
   372  3.7100  0.  0.
   373  3.7200  0.  0.
   374  3.7300  0.  0.
   375  3.7400  0.  0.
   376  3.7500  0.  0.
   377  3.7600  0.  0.
   378  3.7700  0.  0.
   379  3.7800  0.  0.
   380  3.7900  0.  0.
   381  3.8000  0.  0.
   382  3.8100  0.  0.
   383  3.8200  0.  0.
   384  3.8300  0.  0.
   385  3.8400  0.  0.
   386  3.8500  0.  0.
   387  3.8600  0.  0.
   388  3.8700  0.  0.
   389  3.8800  0.  0.
   390  3.8900  0.  0.
   391  3.9000  0.  0.
   392  3.9100  0.  0.
   393  3.9200  0.  0.
   394  3.9300  0.  0.
   395  3.9400  0.  0.
   396  3.9500  0.  0.
   397  3.9600  0.  0.
   398  3.9700  0.  0.
   399  3.9800  0.  0.
   400  3.9900  0.  0.
   401  4.0000  0.  0.
   402  4.0100  0.  0.
   403  4.0200  0.  0.
   404  4.0300  0.  0.
   405  4.0400  0.  0.
   406  4.0500  0.  0.
   407  4.0600  0.  0.
   408  4.0700  0.  0.
   409  4.0800  0.  0.
   410  4.0900  0.  0.
   411  4.1000  0.  0.
   412  4.1100  0.  0.
   413  4.1200  0.  0.
   414  4.1300  0.  0.
   415  4.1400  0.  0.
   416  4.1500  0.  0.
   417  4.1600  0.  0.
   418  4.1700  0.  0.
   419  4.1800  0.  0.
   420  4.1900  0.  0.
   421  4.2000  0.  0.
   422  4.2100  0.  0.
   423  4.2200  0.  0.
   424  4.2300  0.  0.
   425  4.2400  0.  0.
   426  4.2500  0.  0.
   427  4.2600  0.  0.
   428  4.2700  0.  0.
   429  4.2800  0.  0.
   430  4.2900  0.  0.
   431  4.3000  0.  0.
   432  4.3100  0.  0.
   433  4.3200  0.  0.
   434  4.3300  0.  0.
   435  4.3400  0.  0.
   436  4.3500  0.  0.
   437  4.3600  0.  0.
   438  4.3700  0.  0.
   439  4.3800  0.  0.
   440  4.3900  0.  0.
   441  4.4000  0.  0.
   442  4.4100  0.  0.
   443  4.4200  0.  0.
   444  4.4300  0.  0.
   445  4.4400  0.  0.
   446  4.4500  0.  0.
   447  4.4600  0.  0.
   448  4.4700  0.  0.
   449  4.4800  0.  0.
   450  4.4900  0.  0.
   451  4.5000  0.  0.
   452  4.5100  0.  0.
   453  4.5200  0.  0.
   454  4.5300  0.  0.
   455  4.5400  0.  0.
   456  4.5500  0.  0.
   457  4.5600  0.  0.
   458  4.5700  0.  0.
   459  4.5800  0.  0.
   460  4.5900  0.  0.
   461  4.6000  0.  0.
   462  4.6100  0.  0.
   463  4.6200  0.  0.
   464  4.6300  0.  0.
   465  4.6400  0.  0.
   466  4.6500  0.  0.
   467  4.6600  0.  0.
   468  4.6700  0.  0.
   469  4.6800  0.  0.
   470  4.6900  0.  0.
   471  4.7000  0.  0.
   472  4.7100  0.  0.
   473  4.7200  0.  0.
   474  4.7300  0.  0.
   475  4.7400  0.  0.
   476  4.7500  0.  0.
   477  4.7600  0.  0.
   478  4.7700  0.  0.
   479  4.7800  0.  0.
   480  4.7900  0.  0.
   481  4.8000  0.  0.
   482  4.8100  0.  0.
   483  4.8200  0.  0.
   484  4.8300  0.  0.
   485  4.8400  0.  0.
   486  4.8500  0.  0.
   487  4.8600  0.  0.
   488  4.8700  0.  0.
   489  4.8800  0.  0.
   490  4.8900  0.  0.
   491  4.9000  0.  0.
   492  4.9100  0.  0.
   493  4.9200  0.  0.
   494  4.9300  0.  0.
   495  4.9400  0.  0.
   496  4.9500  0.  0.
   497  4.9600  0.  0.
   498  4.9700  0.  0.
   499  4.9800  0.  0.
   500  4.9900  0.  0.
   501  5.0000  0.  0.
   502  5.0100  0.  0.
   503  5.0200  0.  0.
   504  5.0300  0.  0.
   505  5.0400  0.  0.
   506  5.0500  0.  0.
   507  5.0600  0.  0.
   508  5.0700  0.  0.
   509  5.0800  0.  0.
   510  5.0900  0.  0.
   511  5.1000  0.  0.
   512  5.1100  0.  0.
   513  5.1200  0.  0.
   514  5.1300  0.  0.
   515  5.1400  0.  0.
   516  5.1500  0.  0.
   517  5.1600  0.  0.
   518  5.1700  0.  0.
   519  5.1800  0.  0.
   520  5.1900  0.  0.
   521  5.2000  0.  0.
   522  5.2100  0.  0.
   523  5.2200  0.  0.
   524  5.2300  0.  0.
   525  5.2400  0.  0.
   526  5.2500  0.  0.
   527  5.2600  0.  0.
   528  5.2700  0.  0.
   529  5.2800  0.  0.
   530  5.2900  0.  0.
   531  5.3000  0.  0.
   532  5.3100  0.  0.
   533  5.3200  0.  0.
   534  5.3300  0.  0.
   535  5.3400  0.  0.
   536  5.3500  0.  0.
   537  5.3600  0.  0.
   538  5.3700  0.  0.
   539  5.3800  0.  0.
   540  5.3900  0.  0.
   541  5.4000  0.  0.
   542  5.4100  0.  0.
   543  5.4200  0.  0.
   544  5.4300  0.  0.
   545  5.4400  0.  0.
   546  5.4500  0.  0.
   547  5.4600  0.  0.
   548  5.4700  0.  0.
   549  5.4800  0.  0.
   550  5.4900  0.  0.
   551  5.5000  0.  0.
   552  5.5100  0.  0.
   553  5.5200  0.  0.
   554  5.5300  0.  0.
   555  5.5400  0.  0.
   556  5.5500  0.  0.
   557  5.5600  0.  0.
   558  5.5700  0.  0.
   559  5.5800  0.  0.
   560  5.5900  0.  0.
   561  5.6000  0.  0.
   562  5.6100  0.  0.
   563  5.6200  0.  0.
   564  5.6300  0.  0.
   565  5.6400  0.  0.
   566  5.6500  0.  0.
   567  5.6600  0.  0.
   568  5.6700  0.  0.
   569  5.6800  0.  0.
   570  5.6900  0.  0.
   571  5.7000  0.  0.
   572  5.7100  0.  0.
   573  5.7200  0.  0.
   574  5.7300  0.  0.
   575  5.7400  0.  0.
   576  5.7500  0.  0.
   577  5.7600  0.  0.
   578  5.7700  0.  0.
   579  5.7800  0.  0.
   580  5.7900  0.  0.
   581  5.8000  0.  0.
   582  5.8100  0.  0.
   583  5.8200  0.  0.
   584  5.8300  0.  0.
   585  5.8400  0.  0.
   586  5.8500  0.  0.
   587  5.8600  0.  0.
   588  5.8700  0.  0.
   589  5.8800  0.  0.
   590  5.8900  0.  0.
   591  5.9000  0.  0.
   592  5.9100  0.  0.
   593  5.9200  0.  0.
   594  5.9300  0.  0.
   595  5.9400  0.  0.
   596  5.9500  0.  0.
   597  5.9600  0.  0.
   598  5.9700  0.  0.
   599  5.9800  0.  0.
   600  5.9900  0.  0.
   1                        -5.3869248649285E+00 -1.6351785347224E+00
     1  0.0000000000000E+00  3.4683977911953E-11  5.3016743772893E-11
     2  1.0000000000000E-02  1.1841704465812E-03 -8.9588612938297E-04
     3  2.0000000000000E-02  4.7329975361537E-03 -3.5790803843184E-03
     4  3.0000000000000E-02  1.0635439295147E-02 -8.0362036528912E-03
     5  4.0000000000000E-02  1.8873128342174E-02 -1.4245001746007E-02
     6  5.0000000000000E-02  2.9420425696211E-02 -2.2174412026182E-02
     7  6.0000000000000E-02  4.2244495999765E-02 -3.1784656947714E-02
     8  7.0000000000000E-02  5.7305404046537E-02 -4.3027364755508E-02
     9  8.0000000000000E-02  7.4556232468434E-02 -5.5845717642821E-02
    10  9.0000000000000E-02  9.3943220399865E-02 -7.0174627708148E-02
    11  1.0000000000000E-01  1.1540592289771E-01 -8.5940941076313E-02
    12  1.1000000000000E-01  1.3887739085285E-01 -1.0306367055606E-01
    13  1.2000000000000E-01  1.6428437108335E-01 -1.2145425719429E-01
    14  1.3000000000000E-01  1.9154752625003E-01 -1.4101686105446E-01
    15  1.4000000000000E-01  2.2058167418240E-01 -1.6164868149121E-01
    16  1.5000000000000E-01  2.5129604614633E-01 -1.8324030711597E-01
    17  1.6000000000000E-01  2.8359456352444E-01 -2.0567609554662E-01
    18  1.7000000000000E-01  3.1737613231680E-01 -2.2883458291058E-01
    19  1.8000000000000E-01  3.5253495480214E-01 -2.5258892292278E-01
    20  1.9000000000000E-01  3.8896085762985E-01 -2.7680735519145E-01
    21  2.0000000000000E-01  4.2653963554042E-01 -3.0135370221421E-01
    22  2.1000000000000E-01  4.6515340983672E-01 -3.2608789431842E-01
    23  2.2000000000000E-01  5.0468100065236E-01 -3.5086652157329E-01
    24  2.3000000000000E-01  5.4499831198554E-01 -3.7554341146082E-01
    25  2.4000000000000E-01  5.8597872838901E-01 -3.9997023084007E-01
    26  2.5000000000000E-01  6.2749352212912E-01 -4.2399711047742E-01
    27  2.6000000000000E-01  6.6941226955091E-01 -4.4747329014871E-01
    28  2.7000000000000E-01  7.1160327531156E-01 -4.7024778204964E-01
    29  2.8000000000000E-01  7.5393400307348E-01 -4.9217004998298E-01
    30  2.9000000000000E-01  7.9627151118056E-01 -5.1309070152884E-01
    31  3.0000000000000E-01  8.3848289177821E-01 -5.3286219015059E-01
    32  3.1000000000000E-01  8.8043571178066E-01 -5.5133952394871E-01
    33  3.2000000000000E-01  9.2199845403773E-01 -5.6838097755118E-01
    34  3.3000000000000E-01  9.6304095701003E-01 -5.8384880342580E-01
    35  3.4000000000000E-01  1.0034348512256E+00 -5.9760993872046E-01
    36  3.5000000000000E-01  1.0430539907649E+00 -6.0953670358579E-01
    37  3.6000000000000E-01  1.0817748780022E+00 -6.1950748681311E-01
    38  3.7000000000000E-01  1.1194770798273E+00 -6.2740741453256E-01
    39  3.8000000000000E-01  1.1560436335703E+00 -6.3312899766384E-01
    40  3.9000000000000E-01  1.1913614408728E+00 -6.3657275379743E-01
    41  4.0000000000000E-01  1.2253216477669E+00 -6.3764779920894E-01
    42  4.1000000000000E-01  1.2578200092702E+00 -6.3627240677471E-01
    43  4.2000000000000E-01  1.2887572368440E+00 -6.3237452566348E-01
    44  4.3000000000000E-01  1.3180393271319E+00 -6.2589225882718E-01
    45  4.4000000000000E-01  1.3455778704615E+00 -6.1677429450371E-01
    46  4.5000000000000E-01  1.3712903376783E+00 -6.0498028817434E-01
    47  4.6000000000000E-01  1.3951003439769E+00 -5.9048119168789E-01
    48  4.7000000000000E-01  1.4169378884949E+00 -5.7325952657018E-01
    49  4.8000000000000E-01  1.4367395685536E+00 -5.5330959887929E-01
    50  4.9000000000000E-01  1.4544487675520E+00 -5.3063765334100E-01
    51  5.0000000000000E-01  1.4700158156508E+00 -5.0526196490202E-01
    52  5.1000000000000E-01  1.4833981225250E+00 -4.7721286626758E-01
    53  5.2000000000000E-01  1.4945602816064E+00 -4.4653271044005E-01
    54  5.3000000000000E-01  1.5034741453894E+00 -4.1327576774332E-01
    55  5.4000000000000E-01  1.5101188715285E+00 -3.7750805729777E-01
    56  5.5000000000000E-01  1.5144809396108E+00 -3.3930711339965E-01
    57  5.6000000000000E-01  1.5165541386489E+00 -2.9876168774986E-01
    58  5.7000000000000E-01  1.5163395254958E+00 -2.5597138896714E-01
    59  5.8000000000000E-01  1.5138453545451E+00 -2.1104626130335E-01
    60  5.9000000000000E-01  1.5090869792299E+00 -1.6410630494892E-01
    61  6.0000000000000E-01  1.5020867259938E+00 -1.1528094077087E-01
    62  6.1000000000000E-01  1.4928737415465E+00 -6.4708422756934E-02
    63  6.2000000000000E-01  1.4814838143657E+00 -1.2535201845525E-02
    64  6.3000000000000E-01  1.4679591715334E+00  4.1084754804384E-02
    65  6.4000000000000E-01  1.4523482521275E+00  9.5990684709226E-02
    66  6.5000000000000E-01  1.4347054585015E+00  1.5201578642682E-01
    67  6.6000000000000E-01  1.4150908868935E+00  2.0898800643663E-01
    68  6.7000000000000E-01  1.3935700388996E+00  2.6673085136302E-01
    69  6.8000000000000E-01  1.3702135154335E+00  3.2506422020132E-01
    70  6.9000000000000E-01  1.3450966948615E+00  3.8380525108618E-01
    71  7.0000000000000E-01  1.3182993970647E+00  4.4276917707094E-01
    72  7.1000000000000E-01  1.2899055352230E+00  5.0177018536613E-01
    73  7.2000000000000E-01  1.2600027571510E+00  5.6062227451504E-01
    74  7.3000000000000E-01  1.2286820780318E+00  6.1914010406407E-01
    75  7.4000000000000E-01  1.1960375064060E+00  6.7713983141355E-01
    76  7.5000000000000E-01  1.1621656652605E+00  7.3443993071041E-01
    77  7.6000000000000E-01  1.1271654100485E+00  7.9086198886391E-01
    78  7.7000000000000E-01  1.0911374454365E+00  8.4623147402814E-01
    79  7.8000000000000E-01  1.0541839425337E+00  9.0037847219608E-01
    80  7.9000000000000E-01  1.0164081583055E+00  9.5313838788671E-01
    81  8.0000000000000E-01  9.7791405880753E-01  1.0043526052740E+00
    82  8.1000000000000E-01  9.3880594780649E-01  1.0538691065021E+00
    83  8.2000000000000E-01  8.9918810227192E-01  1.1015430443462E+00
    84  8.3000000000000E-01  8.5916441613455E-01  1.1472372668161E+00
    85  8.4000000000000E-01  8.1883805361406E-01  1.1908227917412E+00
    86  8.5000000000000E-01  7.7831111331919E-01  1.2321792298347E+00
    87  8.6000000000000E-01  7.3768430422073E-01  1.2711951551860E+00
    88  8.7000000000000E-01  6.9705663449183E-01  1.3077684225851E+00
    89  8.8000000000000E-01  6.5652511410355E-01  1.3418064315272E+00
    90  8.9000000000000E-01  6.1618447195517E-01  1.3732263371740E+00
    91  9.0000000000000E-01  5.7612688821242E-01  1.4019552089662E+00
    92  9.1000000000000E-01  5.3644174242082E-01  1.4279301379671E+00
    93  9.2000000000000E-01  4.9721537785858E-01  1.4510982943866E+00
    94  9.3000000000000E-01  4.5853088249438E-01  1.4714169370669E+00
    95  9.4000000000000E-01  4.2046788681975E-01  1.4888533770147E+00
    96  9.5000000000000E-01  3.8310237873603E-01  1.5033848973284E+00
    97  9.6000000000000E-01  3.4650653559119E-01  1.5149986321001E+00
    98  9.7000000000000E-01  3.1074857338335E-01  1.5236914070553E+00
    99  9.8000000000000E-01  2.7589261307621E-01  1.5294695448454E+00
   100  9.9000000000000E-01  2.4199856390628E-01  1.5323486380099E+00
   101  1.0000000000000E+00  2.0912202350386E-01  1.5323532926919E+00
   102  1.0100000000000E+00  1.7731419459883E-01  1.5295168462111E+00
   103  1.0200000000000E+00  1.4662181803822E-01  1.5238810615864E+00
   104  1.0300000000000E+00  1.1708712180524E-01  1.5154958020405E+00
   105  1.0400000000000E+00  8.8747785699210E-02  1.5044186884331E+00
   106  1.0500000000000E+00  6.1636921311152E-02  1.4907147424423E+00
   107  1.0600000000000E+00  3.5783066911423E-02  1.4744560181638E+00
   108  1.0700000000000E+00  1.1210196852252E-02  1.4557212246131E+00
   109  1.0800000000000E+00 -1.2062254920590E-02  1.4345953414163E+00