Zn    ONCVPSP-4.0.1  r_core=   2.25352   1.92892   2.09742
     30.0000     20.0000      220722    zatom,zion,pspd
     8      11   2     4   600     0    pspcod,pspxc,lmax,lloc,mmax,r2well
  5.99000000  2.50000000  0.00000000    rchrg fchrg qchrg
     2     2     2     0     0    nproj
     1     1           extension_switch
   0                        -4.6583994548371E+00 -7.3203064682264E-01
     1  0.0000000000000E+00 -1.6390777624053E-12  7.9418693843536E-12
     2  1.0000000000000E-02  4.4359391019724E-02 -4.0266825465924E-02
     3  2.0000000000000E-02  8.8667026682826E-02 -8.0430301517016E-02
     4  3.0000000000000E-02  1.3287123905640E-01 -1.2038733208172E-01
     5  4.0000000000000E-02  1.7692053487502E-01 -1.6003532710390E-01
     6  5.0000000000000E-02  2.2076368242499E-01 -1.9927245387488E-01
     7  6.0000000000000E-02  2.6434979789033E-01 -2.3799788636005E-01
     8  7.0000000000000E-02  3.0762843098313E-01 -2.7611205186118E-01
     9  8.0000000000000E-02  3.5054964968220E-01 -3.1351687436298E-01
    10  9.0000000000000E-02  3.9306412390644E-01 -3.5011601392276E-01
    11  1.0000000000000E-01  4.3512320795138E-01 -3.8581510147339E-01
    12  1.1000000000000E-01  4.7667902152049E-01 -4.2052196842359E-01
    13  1.2000000000000E-01  5.1768452918571E-01 -4.5414687045481E-01
    14  1.3000000000000E-01  5.5809361811582E-01 -4.8660270493112E-01
    15  1.4000000000000E-01  5.9786117391444E-01 -5.1780522135710E-01
    16  1.5000000000000E-01  6.3694315441453E-01 -5.4767322433939E-01
    17  1.6000000000000E-01  6.7529666128044E-01 -5.7612876852900E-01
    18  1.7000000000000E-01  7.1288000927366E-01 -6.0309734504501E-01
    19  1.8000000000000E-01  7.4965279304391E-01 -6.2850805890499E-01
    20  1.9000000000000E-01  7.8557595131264E-01 -6.5229379701306E-01
    21  2.0000000000000E-01  8.2061182832193E-01 -6.7439138628387E-01
    22  2.1000000000000E-01  8.5472423242831E-01 -6.9474174150872E-01
    23  2.2000000000000E-01  8.8787849172702E-01 -7.1329000259917E-01
    24  2.3000000000000E-01  9.2004150659935E-01 -7.2998566087356E-01
    25  2.4000000000000E-01  9.5118179908249E-01 -7.4478267408249E-01
    26  2.5000000000000E-01  9.8126955896856E-01 -7.5763956990074E-01
    27  2.6000000000000E-01  1.0102766865468E+00 -7.6851953764516E-01
    28  2.7000000000000E-01  1.0381768319108E+00 -7.7739050801041E-01
    29  2.8000000000000E-01  1.0649454307595E+00 -7.8422522064752E-01
    30  2.9000000000000E-01  1.0905597366302E+00 -7.8900127944284E-01
    31  3.0000000000000E-01  1.1149988495080E+00 -7.9170119538870E-01
    32  3.1000000000000E-01  1.1382437407653E+00 -7.9231241697030E-01
    33  3.2000000000000E-01  1.1602772743935E+00 -7.9082734802644E-01
    34  3.3000000000000E-01  1.1810842244959E+00 -7.8724335307520E-01
    35  3.4000000000000E-01  1.2006512890213E+00 -7.8156275012870E-01
    36  3.5000000000000E-01  1.2189670997240E+00 -7.7379279105344E-01
    37  3.6000000000000E-01  1.2360222283450E+00 -7.6394562956566E-01
    38  3.7000000000000E-01  1.2518091890202E+00 -7.5203827698259E-01
    39  3.8000000000000E-01  1.2663224369238E+00 -7.3809254588211E-01
    40  3.9000000000000E-01  1.2795583631707E+00 -7.2213498185418E-01
    41  4.0000000000000E-01  1.2915152860037E+00 -7.0419678355758E-01
    42  4.1000000000000E-01  1.3021934383042E+00 -6.8431371132474E-01
    43  4.2000000000000E-01  1.3115949514692E+00 -6.6252598458650E-01
    44  4.3000000000000E-01  1.3197238357096E+00 -6.3887816841605E-01
    45  4.4000000000000E-01  1.3265859568278E+00 -6.1341904951868E-01
    46  4.5000000000000E-01  1.3321890095456E+00 -5.8620150201964E-01
    47  4.6000000000000E-01  1.3365424874556E+00 -5.5728234342762E-01
    48  4.7000000000000E-01  1.3396576496811E+00 -5.2672218117524E-01
    49  4.8000000000000E-01  1.3415474843338E+00 -4.9458525016109E-01
    50  4.9000000000000E-01  1.3422266688665E+00 -4.6093924173931E-01
    51  5.0000000000000E-01  1.3417115274248E+00 -4.2585512462373E-01
    52  5.1000000000000E-01  1.3400199853075E+00 -3.8940695819277E-01
    53  5.2000000000000E-01  1.3371715206524E+00 -3.5167169869982E-01
    54  5.3000000000000E-01  1.3331871134692E+00 -3.1272899891070E-01
    55  5.4000000000000E-01  1.3280891921476E+00 -2.7266100170543E-01
    56  5.5000000000000E-01  1.3219015775724E+00 -2.3155212819638E-01
    57  5.6000000000000E-01  1.3146494249855E+00 -1.8948886092753E-01
    58  5.7000000000000E-01  1.3063591637335E+00 -1.4655952273159E-01
    59  5.8000000000000E-01  1.2970584350518E+00 -1.0285405183212E-01
    60  5.9000000000000E-01  1.2867760280315E+00 -5.8463773786658E-02
    61  6.0000000000000E-01  1.2755418139255E+00 -1.3481170874506E-02
    62  6.1000000000000E-01  1.2633866789498E+00  3.2000350461063E-02
    63  6.2000000000000E-01  1.2503424557394E+00  7.7886693501807E-02
    64  6.3000000000000E-01  1.2364418536211E+00  1.2408330585710E-01
    65  6.4000000000000E-01  1.2217183878669E+00  1.7049541416092E-01
    66  6.5000000000000E-01  1.2062063080932E+00  2.1702825824377E-01
    67  6.6000000000000E-01  1.1899405259720E+00  2.6358732416164E-01
    68  6.7000000000000E-01  1.1729565424225E+00  3.1007857546683E-01
    69  6.8000000000000E-01  1.1552903744477E+00  3.5640868211008E-01
    70  6.9000000000000E-01  1.1369784817865E+00  4.0248524636959E-01
    71  7.0000000000000E-01  1.1180576935448E+00  4.4821702520996E-01
    72  7.1000000000000E-01  1.0985651349734E+00  4.9351414848349E-01
    73  7.2000000000000E-01  1.0785381545558E+00  5.3828833239702E-01
    74  7.3000000000000E-01  1.0580142515675E+00  5.8245308767992E-01
    75  7.4000000000000E-01  1.0370310042691E+00  6.2592392190283E-01
    76  7.5000000000000E-01  1.0156259988877E+00  6.6861853541232E-01
    77  7.6000000000000E-01  9.9383675954309E-01  7.1045701036379E-01
    78  7.7000000000000E-01  9.7170067926837E-01  7.5136199235356E-01
    79  7.8000000000000E-01  9.4925495227272E-01  7.9125886417139E-01
    80  7.9000000000000E-01  9.2653650758855E-01  8.3007591121624E-01
    81  8.0000000000000E-01  9.0358194424160E-01  8.6774447814139E-01
    82  8.1000000000000E-01  8.8042746807716E-01  9.0419911631961E-01
    83  8.2000000000000E-01  8.5710883037051E-01  9.3937772174492E-01
    84  8.3000000000000E-01  8.3366126834390E-01  9.7322166301487E-01
    85  8.4000000000000E-01  8.1011944770686E-01  1.0056758990660E+00
    86  8.5000000000000E-01  7.8651740733000E-01  1.0366890863647E+00
    87  8.6000000000000E-01  7.6288850615632E-01  1.0662136752867E+00
    88  8.7000000000000E-01  7.3926537244733E-01  1.0942059954501E+00
    89  8.8000000000000E-01  7.1567985545415E-01  1.1206263298014E+00
    90  8.9000000000000E-01  6.9216297959681E-01  1.1454389772845E+00
    91  9.0000000000000E-01  6.6874490122746E-01  1.1686123039614E+00
    92  9.1000000000000E-01  6.4545486804586E-01  1.1901187824856E+00
    93  9.2000000000000E-01  6.2232118122775E-01  1.2099350198657E+00
    94  9.3000000000000E-01  5.9937116031880E-01  1.2280417734948E+00
    95  9.4000000000000E-01  5.7663111093933E-01  1.2444239554551E+00
    96  9.5000000000000E-01  5.5412629533654E-01  1.2590706251469E+00
    97  9.6000000000000E-01  5.3188090581336E-01  1.2719749703260E+00
    98  9.7000000000000E-01  5.0991804105494E-01  1.2831342766707E+00
    99  9.8000000000000E-01  4.8825968536544E-01  1.2925498860383E+00
   100  9.9000000000000E-01  4.6692669082028E-01  1.3002271436042E+00
   101  1.0000000000000E+00  4.4593876233069E-01  1.3061753341151E+00
   102  1.0100000000000E+00  4.2531444560955E-01  1.3104076075222E+00
   103  1.0200000000000E+00  4.0507111801994E-01  1.3129408942934E+00
   104  1.0300000000000E+00  3.8522498227990E-01  1.3137958107402E+00
   105  1.0400000000000E+00  3.6579106298969E-01  1.3129965547238E+00
   106  1.0500000000000E+00  3.4678320594007E-01  1.3105707921386E+00
   107  1.0600000000000E+00  3.2821408015363E-01  1.3065495346003E+00
   108  1.0700000000000E+00  3.1009518260357E-01  1.3009670087945E+00
   109  1.0800000000000E+00  2.9243684554827E-01  1.2938605179676E+00
   110  1.0900000000000E+00  2.7524824641316E-01  1.2852702960680E+00
   111  1.1000000000000E+00  2.5853742014560E-01  1.2752393550684E+00
   112  1.1100000000000E+00  2.4231127396229E-01  1.2638133260202E+00
   113  1.1200000000000E+00  2.2657560440369E-01  1.2510402944110E+00
   114  1.1300000000000E+00  2.1133511660423E-01  1.2369706304141E+00
   115  1.1400000000000E+00  1.9659344568276E-01  1.2216568146303E+00
   116  1.1500000000000E+00  1.8235318015294E-01  1.2051532599387E+00
   117  1.1600000000000E+00  1.6861588724918E-01  1.1875161300792E+00
   118  1.1700000000000E+00  1.5538214006028E-01  1.1688031556003E+00
   119  1.1800000000000E+00  1.4265154635931E-01  1.1490734478077E+00
   120  1.1900000000000E+00  1.3042277901563E-01  1.1283873113540E+00
   121  1.2000000000000E+00  1.1869360787227E-01  1.1068060561073E+00
   122  1.2100000000000E+00  1.0746093296997E-01  1.0843918089369E+00
   123  1.2200000000000E+00  9.6720818997358E-02  1.0612073260458E+00
   124  1.2300000000000E+00  8.6468530845551E-02  1.0373158064737E+00
   125  1.2400000000000E+00  7.6698570144745E-02  1.0127807073839E+00
   126  1.2500000000000E+00  6.7404712659711E-02  9.8766556173527E-01
   127  1.2600000000000E+00  5.8580046421274E-02  9.6203379892283E-01
   128  1.2700000000000E+00  5.0217010471153E-02  9.3594856895750E-01
   129  1.2800000000000E+00  4.2307434098339E-02  9.0947257073197E-01
   130  1.2900000000000E+00  3.4842576446344E-02  8.8266788490051E-01
   131  1.3000000000000E+00  2.7813166372203E-02  8.5559581187594E-01
   132  1.3100000000000E+00  2.1209442439969E-02  8.2831671542186E-01
   133  1.3200000000000E+00  1.5021192933778E-02  8.0088987229067E-01
   134  1.3300000000000E+00  9.2377957780229E-03  7.7337332832960E-01
   135  1.3400000000000E+00  3.8482582552126E-03  7.4582376144608E-01
   136  1.3500000000000E+00 -1.1587435848033E-03  7.1829635179280E-01
   137  1.3600000000000E+00 -5.7948259270025E-03  6.9084465949968E-01
   138  1.3700000000000E+00 -1.0071858703783E-02  6.6352051024655E-01
   139  1.3800000000000E+00 -1.4001927712974E-02  6.3637388893571E-01
   140  1.3900000000000E+00 -1.7597297432045E-02  6.0945284168857E-01
   141  1.4000000000000E+00 -2.0870374614814E-02  5.8280338635503E-01
   142  1.4100000000000E+00 -2.3833672752366E-02  5.5646943168828E-01
   143  1.4200000000000E+00 -2.6499777475041E-02  5.3049270530219E-01
   144  1.4300000000000E+00 -2.8881312967448E-02  5.0491269049210E-01
   145  1.4400000000000E+00 -3.0990909463392E-02  4.7976657196496E-01
   146  1.4500000000000E+00 -3.2841171882403E-02  4.5508919048896E-01
   147  1.4600000000000E+00 -3.4444649664375E-02  4.3091300643886E-01
   148  1.4700000000000E+00 -3.5813807853461E-02  4.0726807217908E-01
   149  1.4800000000000E+00 -3.6960999477089E-02  3.8418201319403E-01
   150  1.4900000000000E+00 -3.7898439260583E-02  3.6168001784315E-01
   151  1.5000000000000E+00 -3.8638178712553E-02  3.3978483558774E-01
   152  1.5100000000000E+00 -3.9192082610892E-02  3.1851678350731E-01
   153  1.5200000000000E+00 -3.9571806913980E-02  2.9789376089534E-01
   154  1.5300000000000E+00 -3.9788778116439E-02  2.7793127169818E-01
   155  1.5400000000000E+00 -3.9854174063738E-02  2.5864245453619E-01
   156  1.5500000000000E+00 -3.9778906234852E-02  2.4003812002330E-01
   157  1.5600000000000E+00 -3.9573603497344E-02  2.2212679508026E-01
   158  1.5700000000000E+00 -3.9248597334410E-02  2.0491477391764E-01
   159  1.5800000000000E+00 -3.8813908538847E-02  1.8840617534740E-01
   160  1.5900000000000E+00 -3.8279235364406E-02  1.7260300606677E-01
   161  1.6000000000000E+00 -3.7653943120695E-02  1.5750522954479E-01
   162  1.6100000000000E+00 -3.6947055193692E-02  1.4311084013062E-01
   163  1.6200000000000E+00 -3.6167245470008E-02  1.2941594199391E-01
   164  1.6300000000000E+00 -3.5322832139264E-02  1.1641483249979E-01
   165  1.6400000000000E+00 -3.4421772845497E-02  1.0410008961638E-01
   166  1.6500000000000E+00 -3.3471661155117E-02  9.2462662949220E-02
   167  1.6600000000000E+00 -3.2479724305940E-02  8.1491967995682E-02
   168  1.6700000000000E+00 -3.1452822198842E-02  7.1175983213365E-02
   169  1.6800000000000E+00 -3.0397447591043E-02  6.1501349498362E-02
   170  1.6900000000000E+00 -2.9319727447521E-02  5.2453471673801E-02
   171  1.7000000000000E+00 -2.8225425404920E-02  4.4016621594636E-02
   172  1.7100000000000E+00 -2.7119945300315E-02  3.6174042482067E-02
   173  1.7200000000000E+00 -2.6008335715479E-02  2.8908054109827E-02
   174  1.7300000000000E+00 -2.4895295485762E-02  2.2200158474698E-02
   175  1.7400000000000E+00 -2.3785180121411E-02  1.6031145595221E-02
   176  1.7500000000000E+00 -2.2682009088056E-02  1.0381199095102E-02
   177  1.7600000000000E+00 -2.1589473892230E-02  5.2300012416643E-03
   178  1.7700000000000E+00 -2.0510946917144E-02  5.5683712423115E-04
   179  1.7800000000000E+00 -1.9449490953433E-02 -3.6593023271103E-03
   180  1.7900000000000E+00 -1.8407869369355E-02 -7.4396187656695E-03
   181  1.8000000000000E+00 -1.7388556864833E-02 -1.0805406561803E-02
   182  1.8100000000000E+00 -1.6393750753817E-02 -1.3777954895262E-02
   183  1.8200000000000E+00 -1.5425382719726E-02 -1.6378452037806E-02
   184  1.8300000000000E+00 -1.4485130989137E-02 -1.8627892039692E-02
   185  1.8400000000000E+00 -1.3574432869518E-02 -2.0546984015550E-02
   186  1.8500000000000E+00 -1.2694497597472E-02 -2.2156064207048E-02
   187  1.8600000000000E+00 -1.1846319444887E-02 -2.3475010981682E-02
   188  1.8700000000000E+00 -1.1030691031341E-02 -2.4523162908878E-02
   189  1.8800000000000E+00 -1.0248216792253E-02 -2.5319240037304E-02
   190  1.8900000000000E+00 -9.4993265610418E-03 -2.5881268322315E-02
   191  1.9000000000000E+00 -8.7842892117762E-03 -2.6226507416555E-02
   192  1.9100000000000E+00 -8.1032259588037E-03 -2.6371389255460E-02
   193  1.9200000000000E+00 -7.4561254307393E-03 -2.6331422714848E-02
   194  1.9300000000000E+00 -6.8428493531540E-03 -2.6121295295400E-02
   195  1.9400000000000E+00 -6.2631234444174E-03 -2.5755279799713E-02
   196  1.9500000000000E+00 -5.7165326205509E-03 -2.5247544885985E-02
   197  1.9600000000000E+00 -5.2025338537783E-03 -2.4612096477529E-02
   198  1.9700000000000E+00 -4.7204681902772E-03 -2.3862736686465E-02
   199  1.9800000000000E+00 -4.2695728267058E-03 -2.3013020580874E-02
   200  1.9900000000000E+00 -3.8489929327501E-03 -2.2076216523037E-02
   201  2.0000000000000E+00 -3.4577932425615E-03 -2.1065268829870E-02
   202  2.0100000000000E+00 -3.0949693567303E-03 -1.9992763235081E-02
   203  2.0200000000000E+00 -2.7594587281464E-03 -1.8870895009095E-02
   204  2.0300000000000E+00 -2.4501513017233E-03 -1.7711439698501E-02
   205  2.0400000000000E+00 -2.1658997799638E-03 -1.6525726445177E-02
   206  2.0500000000000E+00 -1.9055294885139E-03 -1.5324613836794E-02
   207  2.0600000000000E+00 -1.6678478189776E-03 -1.4118468214610E-02
   208  2.0700000000000E+00 -1.4516532275540E-03 -1.2917144375978E-02
   209  2.0800000000000E+00 -1.2557437687828E-03 -1.1729968632979E-02
   210  2.0900000000000E+00 -1.0789251486997E-03 -1.0565724121051E-02
   211  2.1000000000000E+00 -9.2001822097471E-04 -9.4326381554578E-03
   212  2.1100000000000E+00 -7.7786633000690E-04 -8.3383726827284E-03
   213  2.1200000000000E+00 -6.5134152013033E-04 -7.2900151687806E-03
   214  2.1300000000000E+00 -5.3934952149335E-04 -6.2940686909972E-03
   215  2.1400000000000E+00 -4.4084038905887E-04 -5.3564660807169E-03
   216  2.1500000000000E+00 -3.5486949043624E-04 -4.4827071445815E-03
   217  2.1600000000000E+00 -2.8054962151524E-04 -3.6777066437047E-03
   218  2.1700000000000E+00 -2.1692408594195E-04 -2.9454486143155E-03
   219  2.1800000000000E+00 -1.6310142095216E-04 -2.2893749930814E-03
   220  2.1900000000000E+00 -1.1825895919902E-04 -1.7123881605902E-03
   221  2.2000000000000E+00 -8.1640977823753E-05 -1.2168403621231E-03
   222  2.2100000000000E+00 -5.2560669902374E-05 -8.0453936356442E-04
   223  2.2200000000000E+00 -3.0411020934210E-05 -4.7692555729668E-04
   224  2.2300000000000E+00 -1.4575009719373E-05 -2.3355955590351E-04
   225  2.2400000000000E+00 -4.7198569429306E-06 -7.7106866128043E-05
   226  2.2500000000000E+00 -5.1450310296418E-07 -8.5758747968014E-06
   227  2.2600000000000E+00  2.1428873897886E-07  3.6008501928367E-06
   228  2.2700000000000E+00 -5.0101930455444E-08 -8.3339904877079E-07
   229  2.2800 -0. -0.
   230  2.2900  0.  0.
   231  2.3000 -0. -0.
   232  2.3100  0.  0.
   233  2.3200  0.  0.
   234  2.3300  0.  0.
   235  2.3400  0.  0.
   236  2.3500  0.  0.
   237  2.3600  0.  0.
   238  2.3700  0.  0.
   239  2.3800  0.  0.
   240  2.3900  0.  0.
   241  2.4000  0.  0.
   242  2.4100  0.  0.
   243  2.4200  0.  0.
   244  2.4300  0.  0.
   245  2.4400  0.  0.
   246  2.4500  0.  0.
   247  2.4600  0.  0.
   248  2.4700  0.  0.
   249  2.4800  0.  0.
   250  2.4900  0.  0.
   251  2.5000  0.  0.
   252  2.5100  0.  0.
   253  2.5200  0.  0.
   254  2.5300  0.  0.
   255  2.5400  0.  0.
   256  2.5500  0.  0.
   257  2.5600  0.  0.
   258  2.5700  0.  0.
   259  2.5800  0.  0.
   260  2.5900  0.  0.
   261  2.6000  0.  0.
   262  2.6100  0.  0.
   263  2.6200  0.  0.
   264  2.6300  0.  0.
   265  2.6400  0.  0.
   266  2.6500  0.  0.
   267  2.6600  0.  0.
   268  2.6700  0.  0.
   269  2.6800  0.  0.
   270  2.6900  0.  0.
   271  2.7000  0.  0.
   272  2.7100  0.  0.
   273  2.7200  0.  0.
   274  2.7300  0.  0.
   275  2.7400  0.  0.
   276  2.7500  0.  0.
   277  2.7600  0.  0.
   278  2.7700  0.  0.
   279  2.7800  0.  0.
   280  2.7900  0.  0.
   281  2.8000  0.  0.
   282  2.8100  0.  0.
   283  2.8200  0.  0.
   284  2.8300  0.  0.
   285  2.8400  0.  0.
   286  2.8500  0.  0.
   287  2.8600  0.  0.
   288  2.8700  0.  0.
   289  2.8800  0.  0.
   290  2.8900  0.  0.
   291  2.9000  0.  0.
   292  2.9100  0.  0.
   293  2.9200  0.  0.
   294  2.9300  0.  0.
   295  2.9400  0.  0.
   296  2.9500  0.  0.
   297  2.9600  0.  0.
   298  2.9700  0.  0.
   299  2.9800  0.  0.
   300  2.9900  0.  0.
   301  3.0000  0.  0.
   302  3.0100  0.  0.
   303  3.0200  0.  0.
   304  3.0300  0.  0.
   305  3.0400  0.  0.
   306  3.0500  0.  0.
   307  3.0600  0.  0.
   308  3.0700  0.  0.
   309  3.0800  0.  0.
   310  3.0900  0.  0.
   311  3.1000  0.  0.
   312  3.1100  0.  0.
   313  3.1200  0.  0.
   314  3.1300  0.  0.
   315  3.1400  0.  0.
   316  3.1500  0.  0.
   317  3.1600  0.  0.
   318  3.1700  0.  0.
   319  3.1800  0.  0.
   320  3.1900  0.  0.
   321  3.2000  0.  0.
   322  3.2100  0.  0.
   323  3.2200  0.  0.
   324  3.2300  0.  0.
   325  3.2400  0.  0.
   326  3.2500  0.  0.
   327  3.2600  0.  0.
   328  3.2700  0.  0.
   329  3.2800  0.  0.
   330  3.2900  0.  0.
   331  3.3000  0.  0.
   332  3.3100  0.  0.
   333  3.3200  0.  0.
   334  3.3300  0.  0.
   335  3.3400  0.  0.
   336  3.3500  0.  0.
   337  3.3600  0.  0.
   338  3.3700  0.  0.
   339  3.3800  0.  0.
   340  3.3900  0.  0.
   341  3.4000  0.  0.
   342  3.4100  0.  0.
   343  3.4200  0.  0.
   344  3.4300  0.  0.
   345  3.4400  0.  0.
   346  3.4500  0.  0.
   347  3.4600  0.  0.
   348  3.4700  0.  0.
   349  3.4800  0.  0.
   350  3.4900  0.  0.
   351  3.5000  0.  0.
   352  3.5100  0.  0.
   353  3.5200  0.  0.
   354  3.5300  0.  0.
   355  3.5400  0.  0.
   356  3.5500  0.  0.
   357  3.5600  0.  0.
   358  3.5700  0.  0.
   359  3.5800  0.  0.
   360  3.5900  0.  0.
   361  3.6000  0.  0.
   362  3.6100  0.  0.
   363  3.6200  0.  0.
   364  3.6300  0.  0.
   365  3.6400  0.  0.
   366  3.6500  0.  0.
   367  3.6600  0.  0.
   368  3.6700  0.  0.
   369  3.6800  0.  0.
   370  3.6900  0.  0.
   371  3.7000  0.  0.
   372  3.7100  0.  0.
   373  3.7200  0.  0.
   374  3.7300  0.  0.
   375  3.7400  0.  0.
   376  3.7500  0.  0.
   377  3.7600  0.  0.
   378  3.7700  0.  0.
   379  3.7800  0.  0.
   380  3.7900  0.  0.
   381  3.8000  0.  0.
   382  3.8100  0.  0.
   383  3.8200  0.  0.
   384  3.8300  0.  0.
   385  3.8400  0.  0.
   386  3.8500  0.  0.
   387  3.8600  0.  0.
   388  3.8700  0.  0.
   389  3.8800  0.  0.
   390  3.8900  0.  0.
   391  3.9000  0.  0.
   392  3.9100  0.  0.
   393  3.9200  0.  0.
   394  3.9300  0.  0.
   395  3.9400  0.  0.
   396  3.9500  0.  0.
   397  3.9600  0.  0.
   398  3.9700  0.  0.
   399  3.9800  0.  0.
   400  3.9900  0.  0.
   401  4.0000  0.  0.
   402  4.0100  0.  0.
   403  4.0200  0.  0.
   404  4.0300  0.  0.
   405  4.0400  0.  0.
   406  4.0500  0.  0.
   407  4.0600  0.  0.
   408  4.0700  0.  0.
   409  4.0800  0.  0.
   410  4.0900  0.  0.
   411  4.1000  0.  0.
   412  4.1100  0.  0.
   413  4.1200  0.  0.
   414  4.1300  0.  0.
   415  4.1400  0.  0.
   416  4.1500  0.  0.
   417  4.1600  0.  0.
   418  4.1700  0.  0.
   419  4.1800  0.  0.
   420  4.1900  0.  0.
   421  4.2000  0.  0.
   422  4.2100  0.  0.
   423  4.2200  0.  0.
   424  4.2300  0.  0.
   425  4.2400  0.  0.
   426  4.2500  0.  0.
   427  4.2600  0.  0.
   428  4.2700  0.  0.
   429  4.2800  0.  0.
   430  4.2900  0.  0.
   431  4.3000  0.  0.
   432  4.3100  0.  0.
   433  4.3200  0.  0.
   434  4.3300  0.  0.
   435  4.3400  0.  0.
   436  4.3500  0.  0.
   437  4.3600  0.  0.
   438  4.3700  0.  0.
   439  4.3800  0.  0.
   440  4.3900  0.  0.
   441  4.4000  0.  0.
   442  4.4100  0.  0.
   443  4.4200  0.  0.
   444  4.4300  0.  0.
   445  4.4400  0.  0.
   446  4.4500  0.  0.
   447  4.4600  0.  0.
   448  4.4700  0.  0.
   449  4.4800  0.  0.
   450  4.4900  0.  0.
   451  4.5000  0.  0.
   452  4.5100  0.  0.
   453  4.5200  0.  0.
   454  4.5300  0.  0.
   455  4.5400  0.  0.
   456  4.5500  0.  0.
   457  4.5600  0.  0.
   458  4.5700  0.  0.
   459  4.5800  0.  0.
   460  4.5900  0.  0.
   461  4.6000  0.  0.
   462  4.6100  0.  0.
   463  4.6200  0.  0.
   464  4.6300  0.  0.
   465  4.6400  0.  0.
   466  4.6500  0.  0.
   467  4.6600  0.  0.
   468  4.6700  0.  0.
   469  4.6800  0.  0.
   470  4.6900  0.  0.
   471  4.7000  0.  0.
   472  4.7100  0.  0.
   473  4.7200  0.  0.
   474  4.7300  0.  0.
   475  4.7400  0.  0.
   476  4.7500  0.  0.
   477  4.7600  0.  0.
   478  4.7700  0.  0.
   479  4.7800  0.  0.
   480  4.7900  0.  0.
   481  4.8000  0.  0.
   482  4.8100  0.  0.
   483  4.8200  0.  0.
   484  4.8300  0.  0.
   485  4.8400  0.  0.
   486  4.8500  0.  0.
   487  4.8600  0.  0.
   488  4.8700  0.  0.
   489  4.8800  0.  0.
   490  4.8900  0.  0.
   491  4.9000  0.  0.
   492  4.9100  0.  0.
   493  4.9200  0.  0.
   494  4.9300  0.  0.
   495  4.9400  0.  0.
   496  4.9500  0.  0.
   497  4.9600  0.  0.
   498  4.9700  0.  0.
   499  4.9800  0.  0.
   500  4.9900  0.  0.
   501  5.0000  0.  0.
   502  5.0100  0.  0.
   503  5.0200  0.  0.
   504  5.0300  0.  0.
   505  5.0400  0.  0.
   506  5.0500  0.  0.
   507  5.0600  0.  0.
   508  5.0700  0.  0.
   509  5.0800  0.  0.
   510  5.0900  0.  0.
   511  5.1000  0.  0.
   512  5.1100  0.  0.
   513  5.1200  0.  0.
   514  5.1300  0.  0.
   515  5.1400  0.  0.
   516  5.1500  0.  0.
   517  5.1600  0.  0.
   518  5.1700  0.  0.
   519  5.1800  0.  0.
   520  5.1900  0.  0.
   521  5.2000  0.  0.
   522  5.2100  0.  0.
   523  5.2200  0.  0.
   524  5.2300  0.  0.
   525  5.2400  0.  0.
   526  5.2500  0.  0.
   527  5.2600  0.  0.
   528  5.2700  0.  0.
   529  5.2800  0.  0.
   530  5.2900  0.  0.
   531  5.3000  0.  0.
   532  5.3100  0.  0.
   533  5.3200  0.  0.
   534  5.3300  0.  0.
   535  5.3400  0.  0.
   536  5.3500  0.  0.
   537  5.3600  0.  0.
   538  5.3700  0.  0.
   539  5.3800  0.  0.
   540  5.3900  0.  0.
   541  5.4000  0.  0.
   542  5.4100  0.  0.
   543  5.4200  0.  0.
   544  5.4300  0.  0.
   545  5.4400  0.  0.
   546  5.4500  0.  0.
   547  5.4600  0.  0.
   548  5.4700  0.  0.
   549  5.4800  0.  0.
   550  5.4900  0.  0.
   551  5.5000  0.  0.
   552  5.5100  0.  0.
   553  5.5200  0.  0.
   554  5.5300  0.  0.
   555  5.5400  0.  0.
   556  5.5500  0.  0.
   557  5.5600  0.  0.
   558  5.5700  0.  0.
   559  5.5800  0.  0.
   560  5.5900  0.  0.
   561  5.6000  0.  0.
   562  5.6100  0.  0.
   563  5.6200  0.  0.
   564  5.6300  0.  0.
   565  5.6400  0.  0.
   566  5.6500  0.  0.
   567  5.6600  0.  0.
   568  5.6700  0.  0.
   569  5.6800  0.  0.
   570  5.6900  0.  0.
   571  5.7000  0.  0.
   572  5.7100  0.  0.
   573  5.7200  0.  0.
   574  5.7300  0.  0.
   575  5.7400  0.  0.
   576  5.7500  0.  0.
   577  5.7600  0.  0.
   578  5.7700  0.  0.
   579  5.7800  0.  0.
   580  5.7900  0.  0.
   581  5.8000  0.  0.
   582  5.8100  0.  0.
   583  5.8200  0.  0.
   584  5.8300  0.  0.
   585  5.8400  0.  0.
   586  5.8500  0.  0.
   587  5.8600  0.  0.
   588  5.8700  0.  0.
   589  5.8800  0.  0.
   590  5.8900  0.  0.
   591  5.9000  0.  0.
   592  5.9100  0.  0.
   593  5.9200  0.  0.
   594  5.9300  0.  0.
   595  5.9400  0.  0.
   596  5.9500  0.  0.
   597  5.9600  0.  0.
   598  5.9700  0.  0.
   599  5.9800  0.  0.
   600  5.9900  0.  0.
   1                        -6.7392713968437E+00 -2.2715137366252E+00
     1  0.0000000000000E+00  1.0925679805318E-10 -2.8856638606412E-10
     2  1.0000000000000E-02  1.1381347148300E-03 -8.9515395727921E-04
     3  2.0000000000000E-02  4.5489233136054E-03 -3.5756025435661E-03
     4  3.0000000000000E-02  1.0221532131409E-02 -8.0263315788832E-03
     5  4.0000000000000E-02  1.8137948243573E-02 -1.4222402865763E-02
     6  5.0000000000000E-02  2.8273044041022E-02 -2.2129081808315E-02
     7  6.0000000000000E-02  4.0594667237002E-02 -3.1702015013584E-02
     8  7.0000000000000E-02  5.5063755909207E-02 -4.2887456819065E-02
     9  8.0000000000000E-02  7.1634478072013E-02 -5.5622543401733E-02
    10  9.0000000000000E-02  9.0254395167147E-02 -6.9835612844957E-02
    11  1.0000000000000E-01  1.1086464875820E-01 -8.5446569272501E-02
    12  1.1000000000000E-01  1.3340016961542E-01 -1.0236728890522E-01
    13  1.2000000000000E-01  1.5778990828308E-01 -1.2050206565777E-01
    14  1.3000000000000E-01  1.8395708613217E-01 -1.3974809367134E-01
    15  1.4000000000000E-01  2.1181946581785E-01 -1.5999598397594E-01
    16  1.5000000000000E-01  2.4128963998302E-01 -1.8113031229253E-01
    17  1.6000000000000E-01  2.7227533697849E-01 -2.0303019482390E-01
    18  1.7000000000000E-01  3.0467974230507E-01 -2.2556988874331E-01
    19  1.8000000000000E-01  3.3840183442592E-01 -2.4861941397304E-01
    20  1.9000000000000E-01  3.7333673354675E-01 -2.7204519275218E-01
    21  2.0000000000000E-01  4.0937606191882E-01 -2.9571070342324E-01
    22  2.1000000000000E-01  4.4640831418442E-01 -3.1947714482283E-01
    23  2.2000000000000E-01  4.8431923625701E-01 -3.4320410764072E-01
    24  2.3000000000000E-01  5.2299221120834E-01 -3.6675024911545E-01
    25  2.4000000000000E-01  5.6230865062308E-01 -3.8997396746222E-01
    26  2.5000000000000E-01  6.0214838987683E-01 -4.1273407247958E-01
    27  2.6000000000000E-01  6.4239008579693E-01 -4.3489044885533E-01
    28  2.7000000000000E-01  6.8291161517595E-01 -4.5630470878742E-01
    29  2.8000000000000E-01  7.2359047262589E-01 -4.7684083065162E-01
    30  2.9000000000000E-01  7.6430416628552E-01 -4.9636578058413E-01
    31  3.0000000000000E-01  8.0493060992547E-01 -5.1475011400081E-01
    32  3.1000000000000E-01  8.4534851003304E-01 -5.3186855424612E-01
    33  3.2000000000000E-01  8.8543774650298E-01 -5.4760054575053E-01
    34  3.3000000000000E-01  9.2507974560988E-01 -5.6183077927528E-01
    35  3.4000000000000E-01  9.6415784399245E-01 -5.7444968703424E-01
    36  3.5000000000000E-01  1.0025576424397E+00 -5.8535390570448E-01
    37  3.6000000000000E-01  1.0401673483324E+00 -5.9444670556613E-01
    38  3.7000000000000E-01  1.0768781056612E+00 -6.0163838424763E-01
    39  3.8000000000000E-01  1.1125843116135E+00 -6.0684662379244E-01
    40  3.9000000000000E-01  1.1471839187936E+00 -6.0999681000444E-01
    41  4.0000000000000E-01  1.1805787222199E+00 -6.1102231327212E-01
    42  4.1000000000000E-01  1.2126746303164E+00 -6.0986473031166E-01
    43  4.2000000000000E-01  1.2433819191978E+00 -6.0647408650635E-01
    44  4.3000000000000E-01  1.2726154696273E+00 -6.0080899875156E-01
    45  4.4000000000000E-01  1.3002949861039E+00 -5.9283679893973E-01
    46  4.5000000000000E-01  1.3263451976193E+00 -5.8253361843598E-01
    47  4.6000000000000E-01  1.3506960397020E+00 -5.6988443410193E-01
    48  4.7000000000000E-01  1.3732828174448E+00 -5.5488307662027E-01
    49  4.8000000000000E-01  1.3940463492906E+00 -5.3753220205564E-01
    50  4.9000000000000E-01  1.4129330914240E+00 -5.1784322775613E-01
    51  5.0000000000000E-01  1.4298952426929E+00 -4.9583623385486E-01
    52  5.1000000000000E-01  1.4448908300520E+00 -4.7153983176981E-01
    53  5.2000000000000E-01  1.4578837745912E+00 -4.4499100122388E-01
    54  5.3000000000000E-01  1.4688439382737E+00 -4.1623489741404E-01
    55  5.4000000000000E-01  1.4777471515755E+00 -3.8532463004899E-01
    56  5.5000000000000E-01  1.4845752222724E+00 -3.5232101604818E-01
    57  5.6000000000000E-01  1.4893159256789E+00 -3.1729230775258E-01
    58  5.7000000000000E-01  1.4919629766944E+00 -2.8031389853758E-01
    59  5.8000000000000E-01  1.4925159840617E+00 -2.4146800774371E-01
    60  5.9000000000000E-01  1.4909803872854E+00 -2.0084334684908E-01
    61  6.0000000000000E-01  1.4873673767020E+00 -1.5853476880241E-01
    62  6.1000000000000E-01  1.4816937972298E+00 -1.1464290241499E-01
    63  6.2000000000000E-01  1.4739820363598E+00 -6.9273773677412E-02
    64  6.3000000000000E-01  1.4642598969834E+00 -2.2538415821493E-02
    65  6.4000000000000E-01  1.4525604556765E+00  2.5447530108074E-02
    66  6.5000000000000E-01  1.4389219070859E+00  7.4564222473468E-02
    67  6.6000000000000E-01  1.4233873950869E+00  1.2468803243049E-01
    68  6.7000000000000E-01  1.4060048313968E+00  1.7569196193896E-01
    69  6.8000000000000E-01  1.3868267023477E+00  2.2744606494057E-01
    70  6.9000000000000E-01  1.3659098645345E+00  2.7981787033936E-01
    71  7.0000000000000E-01  1.3433153300670E+00  3.3267280551418E-01