Ga    ONCVPSP-4.0.1  r_core=   2.37133   1.94652   1.99366
     31.0000     13.0000      220722    zatom,zion,pspd
     8      11   2     4   600     0    pspcod,pspxc,lmax,lloc,mmax,r2well
  5.99000000  5.00000000  0.00000000    rchrg fchrg qchrg
     2     2     2     0     0    nproj
     1     1           extension_switch
   0                         5.0306126016987E+00  5.1474657482644E-01
     1  0.0000000000000E+00  2.7659569079574E-11 -7.5962965084830E-11
     2  1.0000000000000E-02  2.6474170495972E-02 -7.1691837028611E-03
     3  2.0000000000000E-02  5.2950418373992E-02 -1.4364489702908E-02
     4  3.0000000000000E-02  7.9430696772213E-02 -2.1611715605043E-02
     5  4.0000000000000E-02  1.0591671130289E-01 -2.8936012199798E-02
     6  5.0000000000000E-02  1.3240979868708E-01 -3.6361566462293E-02
     7  6.0000000000000E-02  1.5891080824697E-01 -4.3911292184519E-02
     8  7.0000000000000E-02  1.8541998717545E-01 -5.1606530695701E-02
     9  8.0000000000000E-02  2.1193687047550E-01 -5.9466764049543E-02
    10  9.0000000000000E-02  2.3846017642699E-01 -6.7509342963166E-02
    11  1.0000000000000E-01  2.6498770839867E-01 -7.5749231681369E-02
    12  1.1000000000000E-01  2.9151626377621E-01 -8.4198771812257E-02
    13  1.2000000000000E-01  3.1804155072514E-01 -9.2867467037103E-02
    14  1.3000000000000E-01  3.4455811345013E-01 -1.0176179043988E-01
    15  1.4000000000000E-01  3.7105926654966E-01 -1.1088501603099E-01
    16  1.5000000000000E-01  3.9753703899860E-01 -1.2023707585711E-01
    17  1.6000000000000E-01  4.2398212822040E-01 -1.2981444389541E-01
    18  1.7000000000000E-01  4.5038386463672E-01 -1.3961004772806E-01
    19  1.8000000000000E-01  4.7673018700544E-01 -1.4961320878235E-01
    20  1.9000000000000E-01  5.0300762877868E-01 -1.5980961170553E-01
    21  2.0000000000000E-01  5.2920131563169E-01 -1.7018130322225E-01
    22  2.1000000000000E-01  5.5529497423142E-01 -1.8070672059884E-01
    23  2.2000000000000E-01  5.8127095223081E-01 -1.9136074961347E-01
    24  2.3000000000000E-01  6.0711024939269E-01 -2.0211481170658E-01
    25  2.4000000000000E-01  6.3279255966502E-01 -2.1293697976373E-01
    26  2.5000000000000E-01  6.5829632394891E-01 -2.2379212176412E-01
    27  2.6000000000000E-01  6.8359879322198E-01 -2.3464207131511E-01
    28  2.7000000000000E-01  7.0867610160374E-01 -2.4544582388674E-01
    29  2.8000000000000E-01  7.3350334887594E-01 -2.5615975736303E-01
    30  2.9000000000000E-01  7.5805469190191E-01 -2.6673787533928E-01
    31  3.0000000000000E-01  7.8230344432261E-01 -2.7713207141881E-01
    32  3.1000000000000E-01  8.0622218384661E-01 -2.8729241259972E-01
    33  3.2000000000000E-01  8.2978286639517E-01 -2.9716743969344E-01
    34  3.3000000000000E-01  8.5295694631259E-01 -3.0670448258316E-01
    35  3.4000000000000E-01  8.7571550180792E-01 -3.1584998801317E-01
    36  3.5000000000000E-01  8.9802936475492E-01 -3.2454985750009E-01
    37  3.6000000000000E-01  9.1986925394531E-01 -3.3274979287491E-01
    38  3.7000000000000E-01  9.4120591086475E-01 -3.4039564690148E-01
    39  3.8000000000000E-01  9.6201023704239E-01 -3.4743377637305E-01
    40  3.9000000000000E-01  9.8225343201325E-01 -3.5381139506367E-01
    41  4.0000000000000E-01  1.0019071309282E+00 -3.5947692390682E-01
    42  4.1000000000000E-01  1.0209435408490E+00 -3.6438033578838E-01
    43  4.2000000000000E-01  1.0393355747758E+00 -3.6847349237638E-01
    44  4.3000000000000E-01  1.0570569824711E+00 -3.7171047046426E-01
    45  4.4000000000000E-01  1.0740824771689E+00 -3.7404787537835E-01
    46  4.5000000000000E-01  1.0903878572868E+00 -3.7544513909268E-01
    47  4.6000000000000E-01  1.1059501222983E+00 -3.7586480080523E-01
    48  4.7000000000000E-01  1.1207475819640E+00 -3.7527276785731E-01
    49  4.8000000000000E-01  1.1347599581725E+00 -3.7363855502245E-01
    50  4.9000000000000E-01  1.1479684786929E+00 -3.7093550035099E-01
    51  5.0000000000000E-01  1.1603559622065E+00 -3.6714095593015E-01
    52  5.1000000000000E-01  1.1719068940464E+00 -3.6223645210682E-01
    53  5.2000000000000E-01  1.1826074921451E+00 -3.5620783391809E-01
    54  5.3000000000000E-01  1.1924457627625E+00 -3.4904536868367E-01
    55  5.4000000000000E-01  1.2014115456452E+00 -3.4074382393093E-01
    56  5.5000000000000E-01  1.2094965483441E+00 -3.3130251504748E-01
    57  5.6000000000000E-01  1.2166943695016E+00 -3.2072532228533E-01
    58  5.7000000000000E-01  1.2230005110011E+00 -3.0902067697323E-01
    59  5.8000000000000E-01  1.2284123789541E+00 -2.9620151702840E-01
    60  5.9000000000000E-01  1.2329292735866E+00 -2.8228521209309E-01
    61  6.0000000000000E-01  1.2365523681673E+00 -2.6729345885385E-01
    62  6.1000000000000E-01  1.2392846772034E+00 -2.5125214733062E-01
    63  6.2000000000000E-01  1.2411310142112E+00 -2.3419119914582E-01
    64  6.3000000000000E-01  1.2420979394455E+00 -2.1614437900060E-01
    65  6.4000000000000E-01  1.2421936980484E+00 -1.9714908079232E-01
    66  6.5000000000000E-01  1.2414281491489E+00 -1.7724609000535E-01
    67  6.6000000000000E-01  1.2398126865140E+00 -1.5647932419158E-01
    68  6.7000000000000E-01  1.2373601514135E+00 -1.3489555352960E-01
    69  6.8000000000000E-01  1.2340847384194E+00 -1.1254410360785E-01
    70  6.9000000000000E-01  1.2300018949157E+00 -8.9476542717897E-02
    71  7.0000000000000E-01  1.2251282151358E+00 -6.5746356068005E-02
    72  7.1000000000000E-01  1.2194813295910E+00 -4.1408609431605E-02
    73  7.2000000000000E-01  1.2130797907827E+00 -1.6519604832008E-02
    74  7.3000000000000E-01  1.2059429561195E+00  8.8634690695856E-03
    75  7.4000000000000E-01  1.1980908689800E+00  3.4682889170060E-02
    76  7.5000000000000E-01  1.1895441388729E+00  6.0880749967204E-02
    77  7.6000000000000E-01  1.1803238216522E+00  8.7399312708785E-02
    78  7.7000000000000E-01  1.1704513007403E+00  1.1418134892577E-01
    79  7.8000000000000E-01  1.1599481703042E+00  1.4117047566700E-01
    80  7.9000000000000E-01  1.1488361213086E+00  1.6831147981341E-01
    81  8.0000000000000E-01  1.1371368313471E+00  1.9555062893177E-01
    82  8.1000000000000E-01  1.1248718591185E+00  2.2283596622962E-01
    83  8.2000000000000E-01  1.1120625443764E+00  2.5011758729486E-01
    84  8.3000000000000E-01  1.0987299141329E+00  2.7734789644385E-01
    85  8.4000000000000E-01  1.0848945958462E+00  3.0448184066014E-01
    86  8.5000000000000E-01  1.0705767382615E+00  3.3147711928075E-01
    87  8.6000000000000E-01  1.0557959405112E+00  3.5829436777753E-01
    88  8.7000000000000E-01  1.0405711900111E+00  3.8489731418527E-01
    89  8.8000000000000E-01  1.0249208096145E+00  4.1125290694525E-01
    90  8.9000000000000E-01  1.0088624144097E+00  4.3733141316076E-01
    91  9.0000000000000E-01  9.9241287846264E-01  4.6310648649792E-01
    92  9.1000000000000E-01  9.7558831172575E-01  4.8855520420985E-01
    93  9.2000000000000E-01  9.5840404724364E-01  5.1365807301183E-01
    94  9.3000000000000E-01  9.4087463870198E-01  5.3839900378876E-01
    95  9.4000000000000E-01  9.2301386827536E-01  5.6276525537139E-01
    96  9.5000000000000E-01  9.0483476464203E-01  5.8674734787266E-01
    97  9.6000000000000E-01  8.8634963094498E-01  6.1033894632789E-01
    98  9.7000000000000E-01  8.6757008239242E-01  6.3353671563075E-01
    99  9.8000000000000E-01  8.4850709310575E-01  6.5634014799881E-01
   100  9.9000000000000E-01  8.2917105174094E-01  6.7875136443604E-01
   101  1.0000000000000E+00  8.0957182533084E-01  7.0077489188301E-01
   102  1.0100000000000E+00  7.8971883072089E-01  7.2241741795715E-01
   103  1.0200000000000E+00  7.6962111290089E-01  7.4368752538289E-01
   104  1.0300000000000E+00  7.4928742947025E-01  7.6459540839418E-01
   105  1.0400000000000E+00  7.2872634041548E-01  7.8515257355713E-01
   106  1.0500000000000E+00  7.0794630232529E-01  8.0537152760748E-01
   107  1.0600000000000E+00  6.8695576612301E-01  8.2526545502528E-01
   108  1.0700000000000E+00  6.6576327735674E-01  8.4484788817550E-01
   109  1.0800000000000E+00  6.4437757805641E-01  8.6413237292817E-01
   110  1.0900000000000E+00  6.2280770914315E-01  8.8313213273380E-01
   111  1.1000000000000E+00  6.0106311236095E-01  9.0185973416836E-01
   112  1.1100000000000E+00  5.7915373069311E-01  9.2032675697757E-01
   113  1.1200000000000E+00  5.5709010622742E-01  9.3854347164022E-01
   114  1.1300000000000E+00  5.3488347444321E-01  9.5651852743766E-01
   115  1.1400000000000E+00  5.1254585391166E-01  9.7425865395817E-01
   116  1.1500000000000E+00  4.9009013042700E-01  9.9176837888351E-01
   117  1.1600000000000E+00  4.6753013462105E-01  1.0090497647999E+00
   118  1.1700000000000E+00  4.4488071215600E-01  1.0261021676467E+00
   119  1.1800000000000E+00  4.2215778564090E-01  1.0429220192673E+00
   120  1.1900000000000E+00  3.9937840747539E-01  1.0595026363528E+00
   121  1.2000000000000E+00  3.7656080288876E-01  1.0758340578804E+00
   122  1.2100000000000E+00  3.5372440251445E-01  1.0919029129361E+00
   123  1.2200000000000E+00  3.3088986391763E-01  1.1076923205844E+00
   124  1.2300000000000E+00  3.0807908157662E-01  1.1231818232059E+00
   125  1.2400000000000E+00  2.8531518490748E-01  1.1383473544641E+00
   126  1.2500000000000E+00  2.6262252401325E-01  1.1531612427979E+00
   127  1.2600000000000E+00  2.4002664293594E-01  1.1675922510529E+00
   128  1.2700000000000E+00  2.1755424028810E-01  1.1816056525804E+00
   129  1.2800000000000E+00  1.9523311724232E-01  1.1951633438419E+00
   130  1.2900000000000E+00  1.7309211295961E-01  1.2082239932557E+00
   131  1.3000000000000E+00  1.5116102764112E-01  1.2207432257301E+00
   132  1.3100000000000E+00  1.2947053349036E-01  1.2326738420284E+00
   133  1.3200000000000E+00  1.0805207397581E-01  1.2439660718177E+00
   134  1.3300000000000E+00  8.6937751883856E-02  1.2545678589677E+00
   135  1.3400000000000E+00  6.6160206750012E-02  1.2644251773826E+00
   136  1.3500000000000E+00  4.5752482350482E-02  1.2734823753851E+00
   137  1.3600000000000E+00  2.5747885027137E-02  1.2816825464064E+00
   138  1.3700000000000E+00  6.1798337039249E-03  1.2889679235017E+00
   139  1.3800000000000E+00 -1.2918297467000E-02  1.2952802949761E+00
   140  1.3900000000000E+00 -3.1513342817602E-02  1.3005614382040E+00
   141  1.4000000000000E+00 -4.9572514155755E-02  1.3047535685312E+00
   142  1.4100000000000E+00 -6.7063573898264E-02  1.3077997999875E+00
   143  1.4200000000000E+00 -8.3955011155257E-02  1.3096446143884E+00
   144  1.4300000000000E+00 -1.0021621953304E-01  1.3102343352919E+00
   145  1.4400000000000E+00 -1.1581767538819E-01  1.3095176031757E+00
   146  1.4500000000000E+00 -1.3073111524068E-01  1.3074458481409E+00
   147  1.4600000000000E+00 -1.4492971103796E-01  1.3039737564015E+00
   148  1.4700000000000E+00 -1.5838824195631E-01  1.2990597268133E+00
   149  1.4800000000000E+00 -1.7108326142934E-01  1.2926663137083E+00
   150  1.4900000000000E+00 -1.8299325810730E-01  1.2847606523481E+00
   151  1.5000000000000E+00 -1.9409880947436E-01  1.2753148633808E+00
   152  1.5100000000000E+00 -2.0438272688456E-01  1.2643064327912E+00
   153  1.5200000000000E+00 -2.1383019081977E-01  1.2517185639567E+00
   154  1.5300000000000E+00 -2.2242887522537E-01  1.2375404985838E+00
   155  1.5400000000000E+00 -2.3016905984103E-01  1.2217678034762E+00
   156  1.5500000000000E+00 -2.3704372951346E-01  1.2044026202938E+00
   157  1.5600000000000E+00 -2.4304865955687E-01  1.1854538756930E+00
   158  1.5700000000000E+00 -2.4818248631243E-01  1.1649374494868E+00
   159  1.5800000000000E+00 -2.5244676215162E-01  1.1428762987384E+00
   160  1.5900000000000E+00 -2.5584599426763E-01  1.1193005359900E+00
   161  1.6000000000000E+00 -2.5838766670479E-01  1.0942474601357E+00
   162  1.6100000000000E+00 -2.6008224518676E-01  1.0677615387691E+00
   163  1.6200000000000E+00 -2.6094316441881E-01  1.0398943411673E+00
   164  1.6300000000000E+00 -2.6098679765836E-01  1.0107044214169E+00
   165  1.6400000000000E+00 -2.6023240846899E-01  9.8025715153729E-01
   166  1.6500000000000E+00 -2.5870208469617E-01  9.4862450480869E-01
   167  1.6600000000000E+00 -2.5642065482669E-01  9.1588478987262E-01
   168  1.6700000000000E+00 -2.5341558701795E-01  8.8212233652434E-01
   169  1.6800000000000E+00 -2.4971687120603E-01  8.4742713447246E-01
   170  1.6900000000000E+00 -2.4535688482291E-01  8.1189442668683E-01
   171  1.7000000000000E+00 -2.4037024277144E-01  7.7562425929450E-01
   172  1.7100000000000E+00 -2.3479363242198E-01  7.3872099031211E-01
   173  1.7200000000000E+00 -2.2866563450488E-01  7.0129275981699E-01
   174  1.7300000000000E+00 -2.2202653087822E-01  6.6345092445883E-01
   175  1.7400000000000E+00 -2.1491810024974E-01  6.2530945949426E-01
   176  1.7500000000000E+00 -2.0738340302385E-01  5.8698433178813E-01
   177  1.7600000000000E+00 -1.9946655652972E-01  5.4859284746342E-01
   178  1.7700000000000E+00 -1.9121250196323E-01  5.1025297809713E-01
   179  1.7800000000000E+00 -1.8266676444305E-01  4.7208266954812E-01
   180  1.7900000000000E+00 -1.7387520764033E-01  4.3419913766504E-01
   181  1.8000000000000E+00 -1.6488378448971E-01  3.9671815525591E-01
   182  1.8100000000000E+00 -1.5573828552847E-01  3.5975333480447E-01
   183  1.8200000000000E+00 -1.4648408643839E-01  3.2341541149188E-01
   184  1.8300000000000E+00 -1.3716589634314E-01  2.8781153085519E-01
   185  1.8400000000000E+00 -1.2782750845824E-01  2.5304454574583E-01
   186  1.8500000000000E+00 -1.1851155702726E-01  2.1921234266877E-01
   187  1.8600000000000E+00 -1.0925926842585E-01  1.8640710990581E-01
   188  1.8700000000000E+00 -1.0011030225885E-01  1.5471519115100E-01
   189  1.8800000000000E+00 -9.1102691551550E-02  1.2421754057874E-01
   190  1.8900000000000E+00 -8.2272743663252E-02  9.4989815402870E-02
   191  1.9000000000000E+00 -7.3654858792901E-02  6.7101848762787E-02
   192  1.9100000000000E+00 -6.5281369847231E-02  4.0617226725233E-02
   193  1.9200000000000E+00 -5.7182392596998E-02  1.5592886401333E-02
   194  1.9300000000000E+00 -4.9385689333129E-02 -7.9212462183621E-03
   195  1.9400000000000E+00 -4.1916546983058E-02 -2.9882575991175E-02
   196  1.9500000000000E+00 -3.4797670528032E-02 -5.0256113589105E-02
   197  1.9600000000000E+00 -2.8049092493896E-02 -6.9014703456107E-02
   198  1.9700000000000E+00 -2.1688099188150E-02 -8.6139202782466E-02
   199  1.9800000000000E+00 -1.5729174244651E-02 -1.0161860985692E-01
   200  1.9900000000000E+00 -1.0183959914725E-02 -1.1545014053305E-01
   201  2.0000000000000E+00 -5.0612364226610E-03 -1.2763925193013E-01
   202  2.0100000000000E+00 -3.6691959493294E-04 -1.3819961273614E-01
   203  2.0200000000000E+00  3.8959231725745E-03 -1.4715301999433E-01
   204  2.0300000000000E+00  7.7270386569830E-03 -1.5452926253479E-01
   205  2.0400000000000E+00  1.1128935436591E-02 -1.6036593160072E-01
   206  2.0500000000000E+00  1.4106813724354E-02 -1.6470817968483E-01
   207  2.0600000000000E+00  1.6668477811926E-02 -1.6760842875819E-01
   208  2.0700000000000E+00  1.8824231691246E-02 -1.6912602963371E-01
   209  2.0800000000000E+00  2.0586758520259E-02 -1.6932687446800E-01
   210  2.0900000000000E+00  2.1970984713309E-02 -1.6828296473440E-01
   211  2.1000000000000E+00  2.2993929547400E-02 -1.6607193732408E-01
   212  2.1100000000000E+00  2.3674541273861E-02 -1.6277655172317E-01
   213  2.1200000000000E+00  2.4033520838936E-02 -1.5848414158334E-01
   214  2.1300000000000E+00  2.4093134380529E-02 -1.5328603412072E-01
   215  2.1400000000000E+00  2.3877015763138E-02 -1.4727694110148E-01
   216  2.1500000000000E+00  2.3409960492496E-02 -1.4055432541376E-01
   217  2.1600000000000E+00  2.2717712387531E-02 -1.3321774727381E-01
   218  2.1700000000000E+00  2.1826744476746E-02 -1.2536819445108E-01
   219  2.1800000000000E+00  2.0764035601239E-02 -1.1710740087677E-01
   220  2.1900000000000E+00  1.9556844247026E-02 -1.0853715813448E-01
   221  2.2000000000000E+00  1.8232481156316E-02 -9.9758624422940E-02
   222  2.2100000000000E+00  1.6818085970580E-02 -9.0871645942065E-02
   223  2.2200000000000E+00  1.5340384196635E-02 -8.1974024598315E-02
   224  2.2300000000000E+00  1.3825481418276E-02 -7.3160891499818E-02
   225  2.2400000000000E+00  1.2298704141192E-02 -6.4524212874458E-02
   226  2.2500000000000E+00  1.0784243684720E-02 -5.6151746506551E-02
   227  2.2600000000000E+00  9.3026428331371E-03 -4.8119967352232E-02
   228  2.2700000000000E+00  7.8705591191882E-03 -4.0493364405917E-02
   229  2.2800000000000E+00  6.5092262888568E-03 -3.3348070965922E-02
   230  2.2900000000000E+00  5.2391787418447E-03 -2.6757067680220E-02
   231  2.3000000000000E+00  4.0782393141077E-03 -2.0784519469302E-02
   232  2.3100000000000E+00  3.0420738285537E-03 -1.5487297408401E-02
   233  2.3200000000000E+00  2.1438964450449E-03 -1.0914127661606E-02
   234  2.3300000000000E+00  1.3944293303900E-03 -7.1056093379443E-03
   235  2.3400000000000E+00  8.0174335166644E-04 -4.0936105326903E-03
   236  2.3500000000000E+00  3.6832815745999E-04 -1.8862272904629E-03
   237  2.3600000000000E+00  1.0725896395211E-04 -5.5166318821461E-04
   238  2.3700000000000E+00  5.0161058956071E-06 -2.6033915480882E-05
   239  2.3800000000000E+00 -6.3402847223450E-06  3.2769787932475E-05
   240  2.3900000000000E+00  2.1891136375191E-06 -1.1273310548797E-05
   241  2.4000 -0.  0.
   242  2.4100 -0.  0.
   243  2.4200  0. -0.
   244  2.4300  0.  0.
   245  2.4400  0.  0.
   246  2.4500  0.  0.
   247  2.4600  0.  0.
   248  2.4700  0.  0.
   249  2.4800  0.  0.
   250  2.4900  0.  0.
   251  2.5000  0.  0.
   252  2.5100  0.  0.
   253  2.5200  0.  0.
   254  2.5300  0.  0.
   255  2.5400  0.  0.
   256  2.5500  0.  0.
   257  2.5600  0.  0.
   258  2.5700  0.  0.
   259  2.5800  0.  0.
   260  2.5900  0.  0.
   261  2.6000  0.  0.
   262  2.6100  0.  0.
   263  2.6200  0.  0.
   264  2.6300  0.  0.
   265  2.6400  0.  0.
   266  2.6500  0.  0.
   267  2.6600  0.  0.
   268  2.6700  0.  0.
   269  2.6800  0.  0.
   270  2.6900  0.  0.
   271  2.7000  0.  0.
   272  2.7100  0.  0.
   273  2.7200  0.  0.
   274  2.7300  0.  0.
   275  2.7400  0.  0.
   276  2.7500  0.  0.
   277  2.7600  0.  0.
   278  2.7700  0.  0.
   279  2.7800  0.  0.
   280  2.7900  0.  0.
   281  2.8000  0.  0.
   282  2.8100  0.  0.
   283  2.8200  0.  0.
   284  2.8300  0.  0.
   285  2.8400  0.  0.
   286  2.8500  0.  0.
   287  2.8600  0.  0.
   288  2.8700  0.  0.
   289  2.8800  0.  0.
   290  2.8900  0.  0.
   291  2.9000  0.  0.
   292  2.9100  0.  0.
   293  2.9200  0.  0.
   294  2.9300  0.  0.
   295  2.9400  0.  0.
   296  2.9500  0.  0.
   297  2.9600  0.  0.
   298  2.9700  0.  0.
   299  2.9800  0.  0.
   300  2.9900  0.  0.
   301  3.0000  0.  0.
   302  3.0100  0.  0.
   303  3.0200  0.  0.
   304  3.0300  0.  0.
   305  3.0400  0.  0.
   306  3.0500  0.  0.
   307  3.0600  0.  0.
   308  3.0700  0.  0.
   309  3.0800  0.  0.
   310  3.0900  0.  0.
   311  3.1000  0.  0.
   312  3.1100  0.  0.
   313  3.1200  0.  0.
   314  3.1300  0.  0.
   315  3.1400  0.  0.
   316  3.1500  0.  0.
   317  3.1600  0.  0.
   318  3.1700  0.  0.
   319  3.1800  0.  0.
   320  3.1900  0.  0.
   321  3.2000  0.  0.
   322  3.2100  0.  0.
   323  3.2200  0.  0.
   324  3.2300  0.  0.
   325  3.2400  0.  0.
   326  3.2500  0.  0.
   327  3.2600  0.  0.
   328  3.2700  0.  0.
   329  3.2800  0.  0.
   330  3.2900  0.  0.
   331  3.3000  0.  0.
   332  3.3100  0.  0.
   333  3.3200  0.  0.
   334  3.3300  0.  0.
   335  3.3400  0.  0.
   336  3.3500  0.  0.
   337  3.3600  0.  0.
   338  3.3700  0.  0.
   339  3.3800  0.  0.
   340  3.3900  0.  0.
   341  3.4000  0.  0.
   342  3.4100  0.  0.
   343  3.4200  0.  0.
   344  3.4300  0.  0.
   345  3.4400  0.  0.
   346  3.4500  0.  0.
   347  3.4600  0.  0.
   348  3.4700  0.  0.
   349  3.4800  0.  0.
   350  3.4900  0.  0.
   351  3.5000  0.  0.
   352  3.5100  0.  0.
   353  3.5200  0.  0.
   354  3.5300  0.  0.
   355  3.5400  0.  0.
   356  3.5500  0.  0.
   357  3.5600  0.  0.
   358  3.5700  0.  0.
   359  3.5800  0.  0.
   360  3.5900  0.  0.
   361  3.6000  0.  0.
   362  3.6100  0.  0.
   363  3.6200  0.  0.
   364  3.6300  0.  0.
   365  3.6400  0.  0.
   366  3.6500  0.  0.
   367  3.6600  0.  0.
   368  3.6700  0.  0.
   369  3.6800  0.  0.
   370  3.6900  0.  0.
   371  3.7000  0.  0.
   372  3.7100  0.  0.
   373  3.7200  0.  0.
   374  3.7300  0.  0.
   375  3.7400  0.  0.
   376  3.7500  0.  0.
   377  3.7600  0.  0.
   378  3.7700  0.  0.
   379  3.7800  0.  0.
   380  3.7900  0.  0.
   381  3.8000  0.  0.
   382  3.8100  0.  0.
   383  3.8200  0.  0.
   384  3.8300  0.  0.
   385  3.8400  0.  0.
   386  3.8500  0.  0.
   387  3.8600  0.  0.
   388  3.8700  0.  0.
   389  3.8800  0.  0.
   390  3.8900  0.  0.
   391  3.9000  0.  0.
   392  3.9100  0.  0.
   393  3.9200  0.  0.
   394  3.9300  0.  0.
   395  3.9400  0.  0.
   396  3.9500  0.  0.
   397  3.9600  0.  0.
   398  3.9700  0.  0.
   399  3.9800  0.  0.
   400  3.9900  0.  0.
   401  4.0000  0.  0.
   402  4.0100  0.  0.
   403  4.0200  0.  0.
   404  4.0300  0.  0.
   405  4.0400  0.  0.
   406  4.0500  0.  0.
   407  4.0600  0.  0.
   408  4.0700  0.  0.
   409  4.0800  0.  0.
   410  4.0900  0.  0.
   411  4.1000  0.  0.
   412  4.1100  0.  0.
   413  4.1200  0.  0.
   414  4.1300  0.  0.
   415  4.1400  0.  0.
   416  4.1500  0.  0.
   417  4.1600  0.  0.
   418  4.1700  0.  0.
   419  4.1800  0.  0.
   420  4.1900  0.  0.
   421  4.2000  0.  0.
   422  4.2100  0.  0.
   423  4.2200  0.  0.
   424  4.2300  0.  0.
   425  4.2400  0.  0.
   426  4.2500  0.  0.
   427  4.2600  0.  0.
   428  4.2700  0.  0.
   429  4.2800  0.  0.
   430  4.2900  0.  0.
   431  4.3000  0.  0.
   432  4.3100  0.  0.
   433  4.3200  0.  0.
   434  4.3300  0.  0.
   435  4.3400  0.  0.
   436  4.3500  0.  0.
   437  4.3600  0.  0.
   438  4.3700  0.  0.
   439  4.3800  0.  0.
   440  4.3900  0.  0.
   441  4.4000  0.  0.
   442  4.4100  0.  0.
   443  4.4200  0.  0.
   444  4.4300  0.  0.
   445  4.4400  0.  0.
   446  4.4500  0.  0.
   447  4.4600  0.  0.
   448  4.4700  0.  0.
   449  4.4800  0.  0.
   450  4.4900  0.  0.
   451  4.5000  0.  0.
   452  4.5100  0.  0.
   453  4.5200  0.  0.
   454  4.5300  0.  0.
   455  4.5400  0.  0.
   456  4.5500  0.  0.
   457  4.5600  0.  0.
   458  4.5700  0.  0.
   459  4.5800  0.  0.
   460  4.5900  0.  0.
   461  4.6000  0.  0.
   462  4.6100  0.  0.
   463  4.6200  0.  0.
   464  4.6300  0.  0.
   465  4.6400  0.  0.
   466  4.6500  0.  0.
   467  4.6600  0.  0.
   468  4.6700  0.  0.
   469  4.6800  0.  0.
   470  4.6900  0.  0.
   471  4.7000  0.  0.
   472  4.7100  0.  0.
   473  4.7200  0.  0.
   474  4.7300  0.  0.
   475  4.7400  0.  0.
   476  4.7500  0.  0.
   477  4.7600  0.  0.
   478  4.7700  0.  0.
   479  4.7800  0.  0.
   480  4.7900  0.  0.
   481  4.8000  0.  0.
   482  4.8100  0.  0.
   483  4.8200  0.  0.
   484  4.8300  0.  0.
   485  4.8400  0.  0.
   486  4.8500  0.  0.
   487  4.8600  0.  0.
   488  4.8700  0.  0.
   489  4.8800  0.  0.
   490  4.8900  0.  0.
   491  4.9000  0.  0.
   492  4.9100  0.  0.
   493  4.9200  0.  0.
   494  4.9300  0.  0.
   495  4.9400  0.  0.
   496  4.9500  0.  0.
   497  4.9600  0.  0.
   498  4.9700  0.  0.
   499  4.9800  0.  0.
   500  4.9900  0.  0.
   501  5.0000  0.  0.
   502  5.0100  0.  0.
   503  5.0200  0.  0.
   504  5.0300  0.  0.
   505  5.0400  0.  0.
   506  5.0500  0.  0.
   507  5.0600  0.  0.
   508  5.0700  0.  0.
   509  5.0800  0.  0.
   510  5.0900  0.  0.
   511  5.1000  0.  0.
   512  5.1100  0.  0.
   513  5.1200  0.  0.
   514  5.1300  0.  0.
   515  5.1400  0.  0.
   516  5.1500  0.  0.
   517  5.1600  0.  0.
   518  5.1700  0.  0.
   519  5.1800  0.  0.
   520  5.1900  0.  0.
   521  5.2000  0.  0.
   522  5.2100  0.  0.
   523  5.2200  0.  0.
   524  5.2300  0.  0.
   525  5.2400  0.  0.
   526  5.2500  0.  0.
   527  5.2600  0.  0.
   528  5.2700  0.  0.
   529  5.2800  0.  0.
   530  5.2900  0.  0.
   531  5.3000  0.  0.
   532  5.3100  0.  0.
   533  5.3200  0.  0.
   534  5.3300  0.  0.
   535  5.3400  0.  0.
   536  5.3500  0.  0.
   537  5.3600  0.  0.
   538  5.3700  0.  0.
   539  5.3800  0.  0.
   540  5.3900  0.  0.
   541  5.4000  0.  0.
   542  5.4100  0.  0.
   543  5.4200  0.  0.
   544  5.4300  0.  0.
   545  5.4400  0.  0.
   546  5.4500  0.  0.
   547  5.4600  0.  0.
   548  5.4700  0.  0.
   549  5.4800  0.  0.
   550  5.4900  0.  0.
   551  5.5000  0.  0.
   552  5.5100  0.  0.
   553  5.5200  0.  0.
   554  5.5300  0.  0.
   555  5.5400  0.  0.
   556  5.5500  0.  0.
   557  5.5600  0.  0.
   558  5.5700  0.  0.
   559  5.5800  0.  0.
   560  5.5900  0.  0.
   561  5.6000  0.  0.
   562  5.6100  0.  0.
   563  5.6200  0.  0.
   564  5.6300  0.  0.
   565  5.6400  0.  0.
   566  5.6500  0.  0.
   567  5.6600  0.  0.
   568  5.6700  0.  0.
   569  5.6800  0.  0.
   570  5.6900  0.  0.
   571  5.7000  0.  0.
   572  5.7100  0.  0.
   573  5.7200  0.  0.
   574  5.7300  0.  0.
   575  5.7400  0.  0.
   576  5.7500  0.  0.
   577  5.7600  0.  0.
   578  5.7700  0.  0.
   579  5.7800  0.  0.
   580  5.7900  0.  0.
   581  5.8000  0.  0.
   582  5.8100  0.  0.
   583  5.8200  0.  0.
   584  5.8300  0.  0.
   585  5.8400  0.  0.
   586  5.8500  0.  0.
   587  5.8600  0.  0.
   588  5.8700  0.  0.
   589  5.8800  0.  0.
   590  5.8900  0.  0.
   591  5.9000  0.  0.
   592  5.9100  0.  0.
   593  5.9200  0.  0.
   594  5.9300  0.  0.
   595  5.9400  0.  0.
   596  5.9500  0.  0.
   597  5.9600  0.  0.
   598  5.9700  0.  0.
   599  5.9800  0.  0.
   600  5.9900  0.  0.
   1                         3.4887166453220E+00  5.2641540918288E-01
     1  0.0000000000000E+00 -2.7420005849210E-10  4.3377607061856E-10
     2  1.0000000000000E-02 -2.2680004533310E-04  7.0094590144719E-04
     3  2.0000000000000E-02 -9.0424800240891E-04  2.7993083232507E-03
     4  3.0000000000000E-02 -2.0235075360865E-03  6.2816919322094E-03
     5  4.0000000000000E-02 -3.5699186133943E-03  1.1125872655422E-02
     6  5.0000000000000E-02 -5.5230977803655E-03  1.7300949092798E-02
     7  6.0000000000000E-02 -7.8570775307233E-03  2.4767552879297E-02
     8  7.0000000000000E-02 -1.0540483757477E-02  3.3478116397877E-02
     9  8.0000000000000E-02 -1.3536750004291E-02  4.3377195810355E-02
    10  9.0000000000000E-02 -1.6804366969656E-02  5.4401846956602E-02
    11  1.0000000000000E-01 -2.0297165465651E-02  6.6482051276254E-02
    12  1.1000000000000E-01 -2.3964630796276E-02  7.9541188534605E-02
    13  1.2000000000000E-01 -2.7752246300012E-02  9.3496552788804E-02
    14  1.3000000000000E-01 -3.1601863599089E-02  1.0825990771455E-01
    15  1.4000000000000E-01 -3.5452096915494E-02  1.2373807712996E-01
    16  1.5000000000000E-01 -3.9238738652535E-02  1.3983356630429E-01
    17  1.6000000000000E-01 -4.2895193301872E-02  1.5644520942693E-01
    18  1.7000000000000E-01 -4.6352926620584E-02  1.7346883843784E-01
    19  1.8000000000000E-01 -4.9541926931702E-02  1.9079796828643E-01
    20  1.9000000000000E-01 -5.2391175335431E-02  2.0832449359177E-01
    21  2.0000000000000E-01 -5.4829121577474E-02  2.2593939162457E-01
    22  2.1000000000000E-01 -5.6784162305482E-02  2.4353342652040E-01
    23  2.2000000000000E-01 -5.8185118454885E-02  2.6099784966360E-01
    24  2.3000000000000E-01 -5.8961708540790E-02  2.7822509125314E-01
    25  2.4000000000000E-01 -5.9045014692914E-02  2.9510943817276E-01
    26  2.5000000000000E-01 -5.8367938354900E-02  3.1154769343838E-01
    27  2.6000000000000E-01 -5.6865642677131E-02  3.2743981268381E-01
    28  2.7000000000000E-01 -5.4475978762010E-02  3.4268951336931E-01
    29  2.8000000000000E-01 -5.1139893071551E-02  3.5720485265478E-01
    30  2.9000000000000E-01 -4.6801813477544E-02  3.7089877016791E-01
    31  3.0000000000000E-01 -4.1410011622881E-02  3.8368959221393E-01
    32  3.1000000000000E-01 -3.4916939467165E-02  3.9550149431648E-01
    33  3.2000000000000E-01 -2.7279538108619E-02  4.0626491934325E-01
    34  3.3000000000000E-01 -1.8459517205516E-02  4.1591694885410E-01
    35  3.4000000000000E-01 -8.4236035618808E-03  4.2440162570847E-01
    36  3.5000000000000E-01  2.8562423081650E-03  4.3167022638015E-01
    37  3.6000000000000E-01  1.5402642567520E-02  4.3768148184710E-01
    38  3.7000000000000E-01  2.9232652065566E-02  4.4240174634770E-01
    39  3.8000000000000E-01  4.4357642380254E-02  4.4580511371998E-01
    40  3.9000000000000E-01  6.0783220043409E-02  4.4787348146179E-01
    41  4.0000000000000E-01  7.8509178843152E-02  4.4859656306487E-01
    42  4.1000000000000E-01  9.7529485846032E-02  4.4797184958057E-01
    43  4.2000000000000E-01  1.1783230053756E-01  4.4600452176541E-01
    44  4.3000000000000E-01  1.3940002624532E-01  4.4270731452838E-01
    45  4.4000000000000E-01  1.6220939278592E-01  4.3810033575451E-01
    46  4.5000000000000E-01  1.8623156906701E-01  4.3221084190907E-01
    47  4.6000000000000E-01  2.1143230418097E-01  4.2507297312965E-01
    48  4.7000000000000E-01  2.3777209534821E-01  4.1672745078822E-01
    49  4.8000000000000E-01  2.6520638090750E-01  4.0722124074855E-01
    50  4.9000000000000E-01  2.9368575640919E-01  3.9660718575531E-01
    51  5.0000000000000E-01  3.2315621174548E-01  3.8494361056708E-01
    52  5.1000000000000E-01  3.5355938715135E-01  3.7229390358618E-01
    53  5.2000000000000E-01  3.8483284583036E-01  3.5872607884189E-01
    54  5.3000000000000E-01  4.1691036090216E-01  3.4431232225002E-01
    55  5.4000000000000E-01  4.4972221433315E-01  3.2912852610100E-01
    56  5.5000000000000E-01  4.8319550549849E-01  3.1325381572021E-01
    57  5.6000000000000E-01  5.1725446703198E-01  2.9677007219885E-01
    58  5.7000000000000E-01  5.5182078565027E-01  2.7976145501305E-01
    59  5.8000000000000E-01  5.8681392568836E-01  2.6231392823209E-01
    60  5.9000000000000E-01  6.2215145315367E-01  2.4451479386792E-01
    61  6.0000000000000E-01  6.5774935819564E-01  2.2645223573697E-01
    62  6.1000000000000E-01  6.9352237399423E-01  2.0821487699511E-01
    63  6.2000000000000E-01  7.2938429019445E-01  1.8989135426961E-01