Ge    ONCVPSP-4.0.1  r_core=   2.32488   2.18988   2.32488
     32.0000     14.0000      210716    zatom,zion,pspd
     8      11   2     4   600     0    pspcod,pspxc,lmax,lloc,mmax,r2well
  5.99000000  5.00000000  0.00000000    rchrg fchrg qchrg
     2     2     2     0     0    nproj
     1     1           extension_switch
   0                         7.2656710328230E+00  1.0090811645807E+00
     1  0.0000000000000E+00 -1.7619794512314E-12  9.5091434726413E-12
     2  1.0000000000000E-02  3.6079901973822E-02 -2.3325231578054E-02
     3  2.0000000000000E-02  7.2114244126229E-02 -4.6562346248403E-02
     4  3.0000000000000E-02  1.0805760071456E-01 -6.9623589491006E-02
     5  4.0000000000000E-02  1.4386481368860E-01 -9.2421930158483E-02
     6  5.0000000000000E-02  1.7949112537462E-01 -1.1487141865807E-01
     7  6.0000000000000E-02  2.1489230976577E-01 -1.3688754093472E-01
     8  7.0000000000000E-02  2.5002480195650E-01 -1.5838756686659E-01
     9  8.0000000000000E-02  2.8484582525989E-01 -1.7929089169355E-01
    10  9.0000000000000E-02  3.1931351554963E-01 -1.9951936911176E-01
    11  1.0000000000000E-01  3.5338704237120E-01 -2.1899763468214E-01
    12  1.1000000000000E-01  3.8702672637041E-01 -2.3765341821899E-01
    13  1.2000000000000E-01  4.2019415259253E-01 -2.5541784384636E-01
    14  1.3000000000000E-01  4.5285227921066E-01 -2.7222571643492E-01
    15  1.4000000000000E-01  4.8496554124881E-01 -2.8801579316122E-01
    16  1.5000000000000E-01  5.1649994887359E-01 -3.0273103896420E-01
    17  1.6000000000000E-01  5.4742317983768E-01 -3.1631886471190E-01
    18  1.7000000000000E-01  5.7770466566957E-01 -3.2873134693346E-01
    19  1.8000000000000E-01  6.0731567121714E-01 -3.3992542801942E-01
    20  1.9000000000000E-01  6.3622936716693E-01 -3.4986309584626E-01
    21  2.0000000000000E-01  6.6442089517841E-01 -3.5851154183953E-01
    22  2.1000000000000E-01  6.9186742529100E-01 -3.6584329655480E-01
    23  2.2000000000000E-01  7.1854820528285E-01 -3.7183634192571E-01
    24  2.3000000000000E-01  7.4444460168417E-01 -3.7647419940551E-01
    25  2.4000000000000E-01  7.6954013217347E-01 -3.7974599331114E-01
    26  2.5000000000000E-01  7.9382048911370E-01 -3.8164648876852E-01
    27  2.6000000000000E-01  8.1727355401614E-01 -3.8217610375308E-01
    28  2.7000000000000E-01  8.3988940275331E-01 -3.8134089482173E-01
    29  2.8000000000000E-01  8.6166030137810E-01 -3.7915251624021E-01
    30  2.9000000000000E-01  8.8258069244470E-01 -3.7562815232388E-01
    31  3.0000000000000E-01  9.0264717176765E-01 -3.7079042292927E-01
    32  3.1000000000000E-01  9.2185845559835E-01 -3.6466726215862E-01
    33  3.2000000000000E-01  9.4021533824366E-01 -3.5729177046896E-01
    34  3.3000000000000E-01  9.5772064019801E-01 -3.4870204051117E-01
    35  3.4000000000000E-01  9.7437914690974E-01 -3.3894095716187E-01
    36  3.5000000000000E-01  9.9019753835230E-01 -3.2805597235135E-01
    37  3.6000000000000E-01  1.0051843096232E+00 -3.1609885543361E-01
    38  3.7000000000000E-01  1.0193496828456E+00 -3.0312541998855E-01
    39  3.8000000000000E-01  1.0327055107011E+00 -2.8919522809120E-01
    40  3.9000000000000E-01  1.0452651719762E+00 -2.7437127322718E-01
    41  4.0000000000000E-01  1.0570434595569E+00 -2.5871964317664E-01
    42  4.1000000000000E-01  1.0680564613620E+00 -2.4230916432942E-01
    43  4.2000000000000E-01  1.0783214347544E+00 -2.2521102903156E-01
    44  4.3000000000000E-01  1.0878566750225E+00 -2.0749840769569E-01
    45  4.4000000000000E-01  1.0966813785740E+00 -1.8924604753505E-01
    46  4.5000000000000E-01  1.1048155015291E+00 -1.7052985990062E-01
    47  4.6000000000000E-01  1.1122796144461E+00 -1.5142649831362E-01
    48  4.7000000000000E-01  1.1190947539546E+00 -1.3201292938826E-01
    49  4.8000000000000E-01  1.1252822721065E+00 -1.1236599893309E-01
    50  4.9000000000000E-01  1.1308636842933E+00 -9.2561995600760E-02
    51  5.0000000000000E-01  1.1358605166045E+00 -7.2676214525809E-02
    52  5.1000000000000E-01  1.1402941535283E+00 -5.2782523446399E-02
    53  5.2000000000000E-01  1.1441856869164E+00 -3.2952933848105E-02
    54  5.3000000000000E-01  1.1475557671478E+00 -1.3257179695341E-02
    55  5.4000000000000E-01  1.1504244574374E+00  6.2376936724287E-03
    56  5.5000000000000E-01  1.1528110922343E+00  2.5467727907071E-02
    57  5.6000000000000E-01  1.1547341406571E+00  4.4372434729671E-02
    58  5.7000000000000E-01  1.1562110758966E+00  6.2895161207548E-02
    59  5.8000000000000E-01  1.1572582515051E+00  8.0983434774224E-02
    60  5.9000000000000E-01  1.1578907854667E+00  9.8589285610191E-02
    61  6.0000000000000E-01  1.1581224529104E+00  1.1566954409408E-01
    62  6.1000000000000E-01  1.1579655882949E+00  1.3218611114306E-01
    63  6.2000000000000E-01  1.1574309978486E+00  1.4810619938822E-01
    64  6.3000000000000E-01  1.1565278829959E+00  1.6340254327419E-01
    65  6.4000000000000E-01  1.1552637754493E+00  1.7805357633239E-01
    66  6.5000000000000E-01  1.1536444845785E+00  1.9204357405341E-01
    67  6.6000000000000E-01  1.1516740576033E+00  2.0536276097427E-01
    68  6.7000000000000E-01  1.1493547530797E+00  2.1800738080123E-01
    69  6.8000000000000E-01  1.1466870280703E+00  2.2997972860606E-01
    70  6.9000000000000E-01  1.1436695393066E+00  2.4128814436247E-01
    71  7.0000000000000E-01  1.1402991585599E+00  2.5194696732807E-01
    72  7.1000000000000E-01  1.1365710023481E+00  2.6197645102521E-01
    73  7.2000000000000E-01  1.1324784760075E+00  2.7140263882767E-01
    74  7.3000000000000E-01  1.1280133320638E+00  2.8025720042055E-01
    75  7.4000000000000E-01  1.1231657427345E+00  2.8857722966289E-01
    76  7.5000000000000E-01  1.1179243862960E+00  2.9640500464775E-01
    77  7.6000000000000E-01  1.1122765469463E+00  3.0378771101791E-01
    78  7.7000000000000E-01  1.1062082276952E+00  3.1077712985730E-01
    79  7.8000000000000E-01  1.0997042757137E+00  3.1742929173506E-01
    80  7.9000000000000E-01  1.0927485194766E+00  3.2380409872992E-01
    81  8.0000000000000E-01  1.0853239169391E+00  3.2996491650435E-01
    82  8.1000000000000E-01  1.0774127138955E+00  3.3597813872934E-01
    83  8.2000000000000E-01  1.0689966115829E+00  3.4191272637943E-01
    84  8.3000000000000E-01  1.0600569425113E+00  3.4783972462181E-01
    85  8.4000000000000E-01  1.0505748534233E+00  3.5383176021104E-01
    86  8.5000000000000E-01  1.0405314942218E+00  3.5996252247066E-01
    87  8.6000000000000E-01  1.0299082116378E+00  3.6630623109240E-01
    88  8.7000000000000E-01  1.0186867463593E+00  3.7293709411251E-01
    89  8.8000000000000E-01  1.0068494322953E+00  3.7992875952951E-01
    90  8.9000000000000E-01  9.9437939661289E-01  3.8735376410951E-01
    91  9.0000000000000E-01  9.8126075915696E-01  3.9528298298113E-01
    92  9.1000000000000E-01  9.6747882984708E-01  4.0378508365184E-01
    93  9.2000000000000E-01  9.5302030263613E-01  4.1292598808087E-01
    94  9.3000000000000E-01  9.3787344462045E-01  4.2276834641909E-01
    95  9.4000000000000E-01  9.2202827890433E-01  4.3337102597426E-01
    96  9.5000000000000E-01  9.0547675984647E-01  4.4478861887992E-01
    97  9.6000000000000E-01  8.8821293935135E-01  4.5707097183805E-01
    98  9.7000000000000E-01  8.7023312291455E-01  4.7026274117059E-01
    99  9.8000000000000E-01  8.5153601418753E-01  4.8440297625218E-01
   100  9.9000000000000E-01  8.3212284689458E-01  4.9952473420822E-01
   101  1.0000000000000E+00  8.1199750301111E-01  5.1565472854850E-01
   102  1.0100000000000E+00  7.9116661619938E-01  5.3281301416906E-01
   103  1.0200000000000E+00  7.6963965959302E-01  5.5101271089464E-01
   104  1.0300000000000E+00  7.4742901712601E-01  5.7025976745308E-01
   105  1.0400000000000E+00  7.2455003771359E-01  5.9055276747267E-01
   106  1.0500000000000E+00  7.0102107171202E-01  6.1188277877624E-01
   107  1.0600000000000E+00  6.7686348920923E-01  6.3423324691365E-01
   108  1.0700000000000E+00  6.5210167982990E-01  6.5757993352955E-01
   109  1.0800000000000E+00  6.2676303387379E-01  6.8189089980846E-01
   110  1.0900000000000E+00  6.0087790474569E-01  7.0712653487707E-01
   111  1.1000000000000E+00  5.7447955277724E-01  7.3323962867648E-01
   112  1.1100000000000E+00  5.4760407068439E-01  7.6017548844842E-01
   113  1.1200000000000E+00  5.2029029104838E-01  7.8787209761087E-01
   114  1.1300000000000E+00  4.9257967635154E-01  8.1626031543497E-01
   115  1.1400000000000E+00  4.6451619224126E-01  8.4526411557652E-01
   116  1.1500000000000E+00  4.3614616483396E-01  8.7480086116850E-01
   117  1.1600000000000E+00  4.0751812300684E-01  9.0478161384420E-01
   118  1.1700000000000E+00  3.7868262675428E-01  9.3511147374183E-01
   119  1.1800000000000E+00  3.4969208281072E-01  9.6568994723767E-01
   120  1.1900000000000E+00  3.2060054885823E-01  9.9641133887485E-01
   121  1.2000000000000E+00  2.9146352774587E-01  1.0271651636955E+00
   122  1.2100000000000E+00  2.6233775324784E-01  1.0578365759518E+00
   123  1.2200000000000E+00  2.3328096897704E-01  1.0883068099665E+00
   124  1.2300000000000E+00  2.0435170214974E-01  1.1184536287390E+00
   125  1.2400000000000E+00  1.7560903396447E-01  1.1481517757484E+00
   126  1.2500000000000E+00  1.4711236841333E-01  1.1772734252956E+00
   127  1.2600000000000E+00  1.1892120138669E-01  1.2056886266524E+00
   128  1.2700000000000E+00  9.1094891960725E-02  1.2332657372426E+00
   129  1.2800000000000E+00  6.3692437769132E-02  1.2598718394582E+00
   130  1.2900000000000E+00  3.6772256465859E-02  1.2853731448300E+00
   131  1.3000000000000E+00  1.0391975051244E-02  1.3096353666216E+00
   132  1.3100000000000E+00 -1.5391756863895E-02  1.3325252776065E+00
   133  1.3200000000000E+00 -4.0523469880284E-02  1.3539136536164E+00
   134  1.3300000000000E+00 -6.4949146759151E-02  1.3736765678942E+00
   135  1.3400000000000E+00 -8.8616503700981E-02  1.3916960344600E+00
   136  1.3500000000000E+00 -1.1147526177629E-01  1.4078606312811E+00
   137  1.3600000000000E+00 -1.3347740726611E-01  1.4220660836444E+00
   138  1.3700000000000E+00 -1.5457743933693E-01  1.4342158075062E+00
   139  1.3800000000000E+00 -1.7473260364076E-01  1.4442214104172E+00
   140  1.3900000000000E+00 -1.9390311054925E-01  1.4520031481105E+00
   141  1.4000000000000E+00 -2.1205233686166E-01  1.4574903352029E+00
   142  1.4100000000000E+00 -2.2914700996586E-01  1.4606217088059E+00
   143  1.4200000000000E+00 -2.4515737357406E-01  1.4613457441241E+00
   144  1.4300000000000E+00 -2.6005733430472E-01  1.4596209214724E+00
   145  1.4400000000000E+00 -2.7382458852401E-01  1.4554159442810E+00
   146  1.4500000000000E+00 -2.8644072900536E-01  1.4487099079314E+00
   147  1.4600000000000E+00 -2.9789133110194E-01  1.4394924194098E+00
   148  1.4700000000000E+00 -3.0816601825242E-01  1.4277636678258E+00
   149  1.4800000000000E+00 -3.1725850676629E-01  1.4135344460568E+00
   150  1.4900000000000E+00 -3.2516662993909E-01  1.3968261237385E+00
   151  1.5000000000000E+00 -3.3189234165162E-01  1.3776705719568E+00
   152  1.5100000000000E+00 -3.3744169969577E-01  1.3561100400163E+00
   153  1.5200000000000E+00 -3.4182482915370E-01  1.3321969847716E+00
   154  1.5300000000000E+00 -3.4505586622543E-01  1.3059938529945E+00
   155  1.5400000000000E+00 -3.4715288297413E-01  1.2775728174462E+00
   156  1.5500000000000E+00 -3.4813779351610E-01  1.2470154673703E+00
   157  1.5600000000000E+00 -3.4803624224049E-01  1.2144124542561E+00
   158  1.5700000000000E+00 -3.4687747470686E-01  1.1798630939603E+00
   159  1.5800000000000E+00 -3.4469419191731E-01  1.1434749263840E+00
   160  1.5900000000000E+00 -3.4152238872251E-01  1.1053632341913E+00
   161  1.6000000000000E+00 -3.3740117717101E-01  1.0656505222239E+00
   162  1.6100000000000E+00 -3.3237259567998E-01  1.0244659596340E+00
   163  1.6200000000000E+00 -3.2648140495094E-01  9.8194478688571E-01
   164  1.6300000000000E+00 -3.1977487162388E-01  9.3822769015542E-01
   165  1.6400000000000E+00 -3.1230254072215E-01  8.9346014591623E-01
   166  1.6500000000000E+00 -3.0411599799121E-01  8.4779173868497E-01
   167  1.6600000000000E+00 -2.9526862330215E-01  8.0137545525475E-01
   168  1.6700000000000E+00 -2.8581533633811E-01  7.5436695890097E-01
   169  1.6800000000000E+00 -2.7581233583762E-01  7.0692384730017E-01
   170  1.6900000000000E+00 -2.6531683370688E-01  6.5920489802263E-01
   171  1.7000000000000E+00 -2.5438678536127E-01  6.1136930567241E-01
   172  1.7100000000000E+00 -2.4308061768794E-01  5.6357591485710E-01
   173  1.7200000000000E+00 -2.3145695603575E-01  5.1598245317021E-01
   174  1.7300000000000E+00 -2.1957435167284E-01  4.6874476854601E-01
   175  1.7400000000000E+00 -2.0749101114590E-01  4.2201607525433E-01
   176  1.7500000000000E+00 -1.9526452898241E-01  3.7594621284263E-01
   177  1.7600000000000E+00 -1.8295162516086E-01  3.3068092223883E-01
   178  1.7700000000000E+00 -1.7060788875649E-01  2.8636114315945E-01
   179  1.7800000000000E+00 -1.5828752914602E-01  2.4312233688801E-01
   180  1.7900000000000E+00 -1.4604313610351E-01  2.0109383825726E-01
   181  1.8000000000000E+00 -1.3392545008163E-01  1.6039824056454E-01
   182  1.8100000000000E+00 -1.2198314391985E-01  1.2115081697195E-01
   183  1.8200000000000E+00 -1.1026261714382E-01  8.3458981643763E-02
   184  1.8300000000000E+00 -9.8807803958492E-02  4.7421793697542E-02
   185  1.8400000000000E+00 -8.7659995960872E-02  1.3129506805061E-02
   186  1.8500000000000E+00 -7.6857680501586E-02 -1.9336833066390E-02
   187  1.8600000000000E+00 -6.6436395550380E-02 -4.9905739464765E-02
   188  1.8700000000000E+00 -5.6428601804383E-02 -7.8515584923649E-02
   189  1.8800000000000E+00 -4.6863572698919E-02 -1.0511484638252E-01
   190  1.8900000000000E+00 -3.7767302863096E-02 -1.2966229523966E-01
   191  1.9000000000000E+00 -2.9162435456254E-02 -1.5212713103330E-01
   192  1.9100000000000E+00 -2.1068208717387E-02 -1.7248905803830E-01
   193  1.9200000000000E+00 -1.3500421947431E-02 -1.9073830439772E-01
   194  1.9300000000000E+00 -6.4714210286044E-03 -2.0687558375569E-01
   195  1.9400000000000E+00  9.8965295419738E-06 -2.2091199968803E-01
   196  1.9500000000000E+00  5.9380571252492E-03 -2.3286889347970E-01
   197  1.9600000000000E+00  1.1310967420339E-02 -2.4277763621382E-01
   198  1.9700000000000E+00  1.6129851848399E-02 -2.5067936636216E-01
   199  1.9800000000000E+00  2.0399171725802E-02 -2.5662467442824E-01
   200  1.9900000000000E+00  2.4126526515557E-02 -2.6067323646178E-01
   201  2.0000000000000E+00  2.7322537890441E-02 -2.6289339852223E-01
   202  2.0100000000000E+00  3.0000717348475E-02 -2.6336171448450E-01
   203  2.0200000000000E+00  3.2177318221715E-02 -2.6216243982640E-01
   204  2.0300000000000E+00  3.3871173003511E-02 -2.5938698424145E-01
   205  2.0400000000000E+00  3.5103517003189E-02 -2.5513332617103E-01
   206  2.0500000000000E+00  3.5897799418749E-02 -2.4950539257990E-01
   207  2.0600000000000E+00  3.6279482983198E-02 -2.4261240746509E-01
   208  2.0700000000000E+00  3.6275833395257E-02 -2.3456821271756E-01
   209  2.0800000000000E+00  3.5915699819602E-02 -2.2549056520539E-01
   210  2.0900000000000E+00  3.5229287770364E-02 -2.1550041396445E-01
   211  2.1000000000000E+00  3.4247925747709E-02 -2.0472116157450E-01
   212  2.1100000000000E+00  3.3003827025543E-02 -1.9327791385531E-01
   213  2.1200000000000E+00  3.1529848004272E-02 -1.8129672203361E-01
   214  2.1300000000000E+00  2.9859244574053E-02 -1.6890382164578E-01
   215  2.1400000000000E+00  2.8025427937763E-02 -1.5622487242633E-01
   216  2.1500000000000E+00  2.6061721337459E-02 -1.4338420340099E-01
   217  2.1600000000000E+00  2.4001119124132E-02 -1.3050406738924E-01
   218  2.1700000000000E+00  2.1876053354287E-02 -1.1770391881543E-01
   219  2.1800000000000E+00  1.9718135415881E-02 -1.0509963113345E-01
   220  2.1900000000000E+00  1.7558005778933E-02 -9.2802998862241E-02
   221  2.2000000000000E+00  1.5425016271245E-02 -8.0920811196006E-02
   222  2.2100000000000E+00  1.3346821963776E-02 -6.9553697277095E-02
   223  2.2200000000000E+00  1.1346885084218E-02 -5.8789570446123E-02
   224  2.2300000000000E+00  9.4479426786463E-03 -4.8712519558058E-02
   225  2.2400000000000E+00  7.6742089992669E-03 -3.9408432138318E-02
   226  2.2500000000000E+00  6.0471467232453E-03 -3.0953975065867E-02
   227  2.2600000000000E+00  4.5858157406713E-03 -2.3417431561459E-02
   228  2.2700000000000E+00  3.3066879336439E-03 -1.6858163318091E-02
   229  2.2800000000000E+00  2.2235328668002E-03 -1.1326263894115E-02
   230  2.2900000000000E+00  1.3477862149853E-03 -6.8646855563997E-03
   231  2.3000000000000E+00  6.8456588359758E-04 -3.4889328465972E-03
   232  2.3100000000000E+00  2.4414274099854E-04 -1.2460699996289E-03
   233  2.3200000000000E+00  3.6478688670110E-05 -1.8665562843820E-04
   234  2.3300000000000E+00 -1.0473988174803E-05  5.3575778357558E-05
   235  2.3400000000000E+00  1.0565173557477E-06 -5.3977630281561E-06
   236  2.35  0. -0.
   237  2.36 -0.  0.
   238  2.37  0. -0.
   239  2.38  0. -0.
   240  2.39  0.  0.
   241  2.40  0.  0.
   242  2.41  0.  0.
   243  2.42  0.  0.
   244  2.43  0.  0.
   245  2.44  0.  0.
   246  2.45  0.  0.
   247  2.46  0.  0.
   248  2.47  0.  0.
   249  2.48  0.  0.
   250  2.49  0.  0.
   251  2.50  0.  0.
   252  2.51  0.  0.
   253  2.52  0.  0.
   254  2.53  0.  0.
   255  2.54  0.  0.
   256  2.55  0.  0.
   257  2.56  0.  0.
   258  2.57  0.  0.
   259  2.58  0.  0.
   260  2.59  0.  0.
   261  2.60  0.  0.
   262  2.61  0.  0.
   263  2.62  0.  0.
   264  2.63  0.  0.
   265  2.64  0.  0.
   266  2.65  0.  0.
   267  2.66  0.  0.
   268  2.67  0.  0.
   269  2.68  0.  0.
   270  2.69  0.  0.
   271  2.70  0.  0.
   272  2.71  0.  0.
   273  2.72  0.  0.
   274  2.73  0.  0.
   275  2.74  0.  0.
   276  2.75  0.  0.
   277  2.76  0.  0.
   278  2.77  0.  0.
   279  2.78  0.  0.
   280  2.79  0.  0.
   281  2.80  0.  0.
   282  2.81  0.  0.
   283  2.82  0.  0.
   284  2.83  0.  0.
   285  2.84  0.  0.
   286  2.85  0.  0.
   287  2.86  0.  0.
   288  2.87  0.  0.
   289  2.88  0.  0.
   290  2.89  0.  0.
   291  2.90  0.  0.
   292  2.91  0.  0.
   293  2.92  0.  0.
   294  2.93  0.  0.
   295  2.94  0.  0.
   296  2.95  0.  0.
   297  2.96  0.  0.
   298  2.97  0.  0.
   299  2.98  0.  0.
   300  2.99  0.  0.
   301  3.00  0.  0.
   302  3.01  0.  0.
   303  3.02  0.  0.
   304  3.03  0.  0.
   305  3.04  0.  0.
   306  3.05  0.  0.
   307  3.06  0.  0.
   308  3.07  0.  0.
   309  3.08  0.  0.
   310  3.09  0.  0.
   311  3.10  0.  0.
   312  3.11  0.  0.
   313  3.12  0.  0.
   314  3.13  0.  0.
   315  3.14  0.  0.
   316  3.15  0.  0.
   317  3.16  0.  0.
   318  3.17  0.  0.
   319  3.18  0.  0.
   320  3.19  0.  0.
   321  3.20  0.  0.
   322  3.21  0.  0.
   323  3.22  0.  0.
   324  3.23  0.  0.
   325  3.24  0.  0.
   326  3.25  0.  0.
   327  3.26  0.  0.
   328  3.27  0.  0.
   329  3.28  0.  0.
   330  3.29  0.  0.
   331  3.30  0.  0.
   332  3.31  0.  0.
   333  3.32  0.  0.
   334  3.33  0.  0.
   335  3.34  0.  0.
   336  3.35  0.  0.
   337  3.36  0.  0.
   338  3.37  0.  0.
   339  3.38  0.  0.
   340  3.39  0.  0.
   341  3.40  0.  0.
   342  3.41  0.  0.
   343  3.42  0.  0.
   344  3.43  0.  0.
   345  3.44  0.  0.
   346  3.45  0.  0.
   347  3.46  0.  0.
   348  3.47  0.  0.
   349  3.48  0.  0.
   350  3.49  0.  0.
   351  3.50  0.  0.
   352  3.51  0.  0.
   353  3.52  0.  0.
   354  3.53  0.  0.
   355  3.54  0.  0.
   356  3.55  0.  0.
   357  3.56  0.  0.
   358  3.57  0.  0.
   359  3.58  0.  0.
   360  3.59  0.  0.
   361  3.60  0.  0.
   362  3.61  0.  0.
   363  3.62  0.  0.
   364  3.63  0.  0.
   365  3.64  0.  0.
   366  3.65  0.  0.
   367  3.66  0.  0.
   368  3.67  0.  0.
   369  3.68  0.  0.
   370  3.69  0.  0.
   371  3.70  0.  0.
   372  3.71  0.  0.
   373  3.72  0.  0.
   374  3.73  0.  0.
   375  3.74  0.  0.
   376  3.75  0.  0.
   377  3.76  0.  0.
   378  3.77  0.  0.
   379  3.78  0.  0.
   380  3.79  0.  0.
   381  3.80  0.  0.
   382  3.81  0.  0.
   383  3.82  0.  0.
   384  3.83  0.  0.
   385  3.84  0.  0.
   386  3.85  0.  0.
   387  3.86  0.  0.
   388  3.87  0.  0.
   389  3.88  0.  0.
   390  3.89  0.  0.
   391  3.90  0.  0.
   392  3.91  0.  0.
   393  3.92  0.  0.
   394  3.93  0.  0.
   395  3.94  0.  0.
   396  3.95  0.  0.
   397  3.96  0.  0.
   398  3.97  0.  0.
   399  3.98  0.  0.
   400  3.99  0.  0.
   401  4.00  0.  0.
   402  4.01  0.  0.
   403  4.02  0.  0.
   404  4.03  0.  0.
   405  4.04  0.  0.
   406  4.05  0.  0.
   407  4.06  0.  0.
   408  4.07  0.  0.
   409  4.08  0.  0.
   410  4.09  0.  0.
   411  4.10  0.  0.
   412  4.11  0.  0.
   413  4.12  0.  0.
   414  4.13  0.  0.
   415  4.14  0.  0.
   416  4.15  0.  0.
   417  4.16  0.  0.
   418  4.17  0.  0.
   419  4.18  0.  0.
   420  4.19  0.  0.
   421  4.20  0.  0.
   422  4.21  0.  0.
   423  4.22  0.  0.
   424  4.23  0.  0.
   425  4.24  0.  0.
   426  4.25  0.  0.
   427  4.26  0.  0.
   428  4.27  0.  0.
   429  4.28  0.  0.
   430  4.29  0.  0.
   431  4.30  0.  0.
   432  4.31  0.  0.
   433  4.32  0.  0.
   434  4.33  0.  0.
   435  4.34  0.  0.
   436  4.35  0.  0.
   437  4.36  0.  0.
   438  4.37  0.  0.
   439  4.38  0.  0.
   440  4.39  0.  0.
   441  4.40  0.  0.
   442  4.41  0.  0.
   443  4.42  0.  0.
   444  4.43  0.  0.
   445  4.44  0.  0.
   446  4.45  0.  0.
   447  4.46  0.  0.
   448  4.47  0.  0.
   449  4.48  0.  0.
   450  4.49  0.  0.
   451  4.50  0.  0.
   452  4.51  0.  0.
   453  4.52  0.  0.
   454  4.53  0.  0.
   455  4.54  0.  0.
   456  4.55  0.  0.
   457  4.56  0.  0.
   458  4.57  0.  0.
   459  4.58  0.  0.
   460  4.59  0.  0.
   461  4.60  0.  0.
   462  4.61  0.  0.
   463  4.62  0.  0.
   464  4.63  0.  0.
   465  4.64  0.  0.
   466  4.65  0.  0.
   467  4.66  0.  0.
   468  4.67  0.  0.
   469  4.68  0.  0.
   470  4.69  0.  0.
   471  4.70  0.  0.
   472  4.71  0.  0.
   473  4.72  0.  0.
   474  4.73  0.  0.
   475  4.74  0.  0.
   476  4.75  0.  0.
   477  4.76  0.  0.
   478  4.77  0.  0.
   479  4.78  0.  0.
   480  4.79  0.  0.
   481  4.80  0.  0.
   482  4.81  0.  0.
   483  4.82  0.  0.
   484  4.83  0.  0.
   485  4.84  0.  0.
   486  4.85  0.  0.
   487  4.86  0.  0.
   488  4.87  0.  0.
   489  4.88  0.  0.
   490  4.89  0.  0.
   491  4.90  0.  0.
   492  4.91  0.  0.
   493  4.92  0.  0.
   494  4.93  0.  0.
   495  4.94  0.  0.
   496  4.95  0.  0.
   497  4.96  0.  0.
   498  4.97  0.  0.
   499  4.98  0.  0.
   500  4.99  0.  0.
   501  5.00  0.  0.
   502  5.01  0.  0.
   503  5.02  0.  0.
   504  5.03  0.  0.
   505  5.04  0.  0.
   506  5.05  0.  0.
   507  5.06  0.  0.
   508  5.07  0.  0.
   509  5.08  0.  0.
   510  5.09  0.  0.
   511  5.10  0.  0.
   512  5.11  0.  0.
   513  5.12  0.  0.
   514  5.13  0.  0.
   515  5.14  0.  0.
   516  5.15  0.  0.
   517  5.16  0.  0.
   518  5.17  0.  0.
   519  5.18  0.  0.
   520  5.19  0.  0.
   521  5.20  0.  0.
   522  5.21  0.  0.
   523  5.22  0.  0.
   524  5.23  0.  0.
   525  5.24  0.  0.
   526  5.25  0.  0.
   527  5.26  0.  0.
   528  5.27  0.  0.
   529  5.28  0.  0.
   530  5.29  0.  0.
   531  5.30  0.  0.
   532  5.31  0.  0.
   533  5.32  0.  0.
   534  5.33  0.  0.
   535  5.34  0.  0.
   536  5.35  0.  0.
   537  5.36  0.  0.
   538  5.37  0.  0.
   539  5.38  0.  0.
   540  5.39  0.  0.
   541  5.40  0.  0.
   542  5.41  0.  0.
   543  5.42  0.  0.
   544  5.43  0.  0.
   545  5.44  0.  0.
   546  5.45  0.  0.
   547  5.46  0.  0.
   548  5.47  0.  0.
   549  5.48  0.  0.
   550  5.49  0.  0.
   551  5.50  0.  0.
   552  5.51  0.  0.
   553  5.52  0.  0.
   554  5.53  0.  0.
   555  5.54  0.  0.
   556  5.55  0.  0.
   557  5.56  0.  0.
   558  5.57  0.  0.
   559  5.58  0.  0.
   560  5.59  0.  0.
   561  5.60  0.  0.
   562  5.61  0.  0.
   563  5.62  0.  0.
   564  5.63  0.  0.
   565  5.64  0.  0.
   566  5.65  0.  0.
   567  5.66  0.  0.
   568  5.67  0.  0.
   569  5.68  0.  0.
   570  5.69  0.  0.
   571  5.70  0.  0.
   572  5.71  0.  0.
   573  5.72  0.  0.
   574  5.73  0.  0.
   575  5.74  0.  0.
   576  5.75  0.  0.
   577  5.76  0.  0.
   578  5.77  0.  0.
   579  5.78  0.  0.
   580  5.79  0.  0.
   581  5.80  0.  0.
   582  5.81  0.  0.
   583  5.82  0.  0.
   584  5.83  0.  0.
   585  5.84  0.  0.
   586  5.85  0.  0.
   587  5.86  0.  0.
   588  5.87  0.  0.
   589  5.88  0.  0.
   590  5.89  0.  0.
   591  5.90  0.  0.
   592  5.91  0.  0.
   593  5.92  0.  0.
   594  5.93  0.  0.
   595  5.94  0.  0.
   596  5.95  0.  0.
   597  5.96  0.  0.
   598  5.97  0.  0.
   599  5.98  0.  0.
   600  5.99  0.  0.
   1                         5.1261981737522E+00  5.0917793705324E-01
     1  0.0000000000000E+00 -2.0964958935554E-11  2.9965255970987E-11
     2  1.0000000000000E-02  5.8652365772444E-04 -4.6539609359896E-04
     3  2.0000000000000E-02  2.3452593216748E-03 -1.8603532689169E-03
     4  3.0000000000000E-02  5.2737008988514E-03 -4.1811789569458E-03
     5  4.0000000000000E-02  9.3676710276506E-03 -7.4217213836926E-03
     6  5.0000000000000E-02  1.4621320306941E-02 -1.1573373388413E-02
     7  6.0000000000000E-02  2.1027126294420E-02 -1.6625077881962E-02
     8  7.0000000000000E-02  2.8575892351226E-02 -2.2563335056837E-02
     9  8.0000000000000E-02  3.7256746430727E-02 -2.9372211490448E-02
    10  9.0000000000000E-02  4.7057139929709E-02 -3.7033351311950E-02
    11  1.0000000000000E-01  5.7962846739504E-02 -4.5525989629869E-02
    12  1.1000000000000E-01  6.9957962652932E-02 -5.4826968443019E-02
    13  1.2000000000000E-01  8.3024905300030E-02 -6.4910755280014E-02
    14  1.3000000000000E-01  9.7144414801369E-02 -7.5749464833343E-02
    15  1.4000000000000E-01  1.1229555534206E-01 -8.7312883871748E-02
    16  1.5000000000000E-01  1.2845571788233E-01 -9.9568499729683E-02
    17  1.6000000000000E-01  1.4560062423162E-01 -1.1248153268459E-01
    18  1.7000000000000E-01  1.6370433272246E-01 -1.2601497254143E-01
    19  1.8000000000000E-01  1.8273924572769E-01 -1.4012961974918E-01
    20  1.9000000000000E-01  2.0267611927013E-01 -1.5478413137595E-01
    21  2.0000000000000E-01  2.2348407497726E-01 -1.6993507226735E-01
    22  2.1000000000000E-01  2.4513061463447E-01 -1.8553697170733E-01
    23  2.2000000000000E-01  2.6758163759021E-01 -2.0154238589152E-01
    24  2.3000000000000E-01  2.9080146126275E-01 -2.1790196650977E-01
    25  2.4000000000000E-01  3.1475284499366E-01 -2.3456453571793E-01
    26  2.5000000000000E-01  3.3939701748556E-01 -2.5147716775819E-01
    27  2.6000000000000E-01  3.6469370805208E-01 -2.6858527746298E-01
    28  2.7000000000000E-01  3.9060118189675E-01 -2.8583271584925E-01
    29  2.8000000000000E-01  4.1707627962334E-01 -3.0316187297877E-01
    30  2.9000000000000E-01  4.4407446116472E-01 -3.2051378822481E-01
    31  3.0000000000000E-01  4.7154985429939E-01 -3.3782826804750E-01
    32  3.1000000000000E-01  4.9945530790505E-01 -3.5504401133912E-01
    33  3.2000000000000E-01  5.2774245007741E-01 -3.7209874235613E-01
    34  3.3000000000000E-01  5.5636175121866E-01 -3.8892935120846E-01
    35  3.4000000000000E-01  5.8526259217573E-01 -4.0547204182718E-01
    36  3.5000000000000E-01  6.1439333748178E-01 -4.2166248728096E-01
    37  3.6000000000000E-01  6.4370141372694E-01 -4.3743599225833E-01
    38  3.7000000000000E-01  6.7313339305521E-01 -4.5272766247893E-01
    39  3.8000000000000E-01  7.0263508175481E-01 -4.6747258074123E-01
    40  3.9000000000000E-01  7.3215161387837E-01 -4.8160598925789E-01
    41  4.0000000000000E-01  7.6162754979794E-01 -4.9506347787361E-01
    42  4.1000000000000E-01  7.9100697956769E-01 -5.0778117770335E-01
    43  4.2000000000000E-01  8.2023363093512E-01 -5.1969595967286E-01
    44  4.3000000000000E-01  8.4925098180895E-01 -5.3074563738774E-01
    45  4.4000000000000E-01  8.7800237695947E-01 -5.4086917370284E-01
    46  4.5000000000000E-01  9.0643114869519E-01 -5.5000689031137E-01
    47  4.6000000000000E-01  9.3448074122763E-01 -5.5810067962184E-01
    48  4.7000000000000E-01  9.6209483840532E-01 -5.6509421814285E-01
    49  4.8000000000000E-01  9.8921749446782E-01 -5.7093318054973E-01
    50  4.9000000000000E-01  1.0157932674413E+00 -5.7556545356489E-01
    51  5.0000000000000E-01  1.0417673547695E+00 -5.7894134874416E-01
    52  5.1000000000000E-01  1.0670857307473E+00 -5.8101381322686E-01
    53  5.2000000000000E-01  1.0916952852995E+00 -5.8173863747595E-01
    54  5.3000000000000E-01  1.1155439636237E+00 -5.8107465900846E-01
    55  5.4000000000000E-01  1.1385809061967E+00 -5.7898396109513E-01
    56  5.5000000000000E-01  1.1607565886222E+00 -5.7543206539155E-01
    57  5.6000000000000E-01  1.1820229607839E+00 -5.7038811745249E-01
    58  5.7000000000000E-01  1.2023335847523E+00 -5.6382506407613E-01
    59  5.8000000000000E-01  1.2216437708809E+00 -5.5571982142512E-01
    60  5.9000000000000E-01  1.2399107115210E+00 -5.4605343287877E-01
    61  6.0000000000000E-01  1.2570936117767E+00 -5.3481121558357E-01
    62  6.1000000000000E-01  1.2731538167173E+00 -5.2198289468844E-01
    63  6.2000000000000E-01  1.2880549344664E+00 -5.0756272427725E-01
    64  6.3000000000000E-01  1.3017629545880E+00 -4.9154959404339E-01
    65  6.4000000000000E-01  1.3142463611955E+00 -4.7394712078988E-01
    66  6.5000000000000E-01  1.3254762402202E+00 -4.5476372388406E-01
    67  6.6000000000000E-01  1.3354263802850E+00 -4.3401268384740E-01
    68  6.7000000000000E-01  1.3440733666470E+00 -4.1171218331907E-01
    69  6.8000000000000E-01  1.3513966676889E+00 -3.8788532969623E-01
    70  6.9000000000000E-01  1.3573787134611E+00 -3.6256015882403E-01
    71  7.0000000000000E-01  1.3620049658005E+00 -3.3576961918450E-01
    72  7.1000000000000E-01  1.3652639795790E+00 -3.0755153611474E-01
    73  7.2000000000000E-01  1.3671474546653E+00 -2.7794855567208E-01
    74  7.3000000000000E-01  1.3676502782159E+00 -2.4700806785512E-01
    75  7.4000000000000E-01  1.3667705569463E+00 -2.1478210898634E-01
    76  7.5000000000000E-01  1.3645096390716E+00 -1.8132724316200E-01
    77  7.6000000000000E-01  1.3608721256473E+00 -1.4670442277987E-01