As    ONCVPSP-4.0.1  r_core=   2.11085   1.80680   2.11085
     33.0000     15.0000      220722    zatom,zion,pspd
     8      11   2     4   600     0    pspcod,pspxc,lmax,lloc,mmax,r2well
  5.99000000  5.00000000  0.00000000    rchrg fchrg qchrg
     2     2     2     0     0    nproj
     1     1           extension_switch
   0                         6.4632607072551E+00  6.1322396593529E-01
     1  0.0000000000000E+00  4.3854836428991E-11 -1.3666630327425E-10
     2  1.0000000000000E-02  3.1013877257664E-02 -1.2112090248432E-02
     3  2.0000000000000E-02  6.2024679059003E-02 -2.4241868840401E-02
     4  3.0000000000000E-02  9.3029188149551E-02 -3.6406634110133E-02
     5  4.0000000000000E-02  1.2402390496709E-01 -4.8622908168555E-02
     6  5.0000000000000E-02  1.5500490969787E-01 -6.0906058244986E-02
     7  6.0000000000000E-02  1.8596772815371E-01 -7.3269929275305E-02
     8  7.0000000000000E-02  2.1690720269166E-01 -8.5726491323852E-02
     9  8.0000000000000E-02  2.4781736935437E-01 -9.8285505289675E-02
    10  9.0000000000000E-02  2.7869134235480E-01 -1.1095421017933E-01
    11  1.0000000000000E-01  3.0952120696558E-01 -1.2373703502978E-01
    12  1.1000000000000E-01  3.4029792179999E-01 -1.3663533833774E-01
    13  1.2000000000000E-01  3.7101123139004E-01 -1.4964717759843E-01
    14  1.3000000000000E-01  4.0164958987804E-01 -1.6276711127883E-01
    15  1.4000000000000E-01  4.3220009654132E-01 -1.7598603525188E-01
    16  1.5000000000000E-01  4.6264844376739E-01 -1.8929105539953E-01
    17  1.6000000000000E-01  4.9297887798911E-01 -2.0266539775922E-01
    18  1.7000000000000E-01  5.2317417397715E-01 -2.1608835724173E-01
    19  1.8000000000000E-01  5.5321562277160E-01 -2.2953528559148E-01
    20  1.9000000000000E-01  5.8308303341714E-01 -2.4297761889858E-01
    21  2.0000000000000E-01  6.1275474854673E-01 -2.5638294460525E-01
    22  2.1000000000000E-01  6.4220767374019E-01 -2.6971510758477E-01
    23  2.2000000000000E-01  6.7141732046522E-01 -2.8293435450847E-01
    24  2.3000000000000E-01  7.0035786229254E-01 -2.9599751536238E-01
    25  2.4000000000000E-01  7.2900220396290E-01 -3.0885822063024E-01
    26  2.5000000000000E-01  7.5732206277481E-01 -3.2146715232887E-01
    27  2.6000000000000E-01  7.8528806165675E-01 -3.3377232676762E-01
    28  2.7000000000000E-01  8.1286983318938E-01 -3.4571940660867E-01
    29  2.8000000000000E-01  8.4003613375116E-01 -3.5725203953244E-01
    30  2.9000000000000E-01  8.6675496687638E-01 -3.6831222056458E-01
    31  3.0000000000000E-01  8.9299371483851E-01 -3.7884067490029E-01
    32  3.1000000000000E-01  9.1871927740476E-01 -3.8877725787052E-01
    33  3.2000000000000E-01  9.4389821665008E-01 -3.9806136853379E-01
    34  3.3000000000000E-01  9.6849690667133E-01 -4.0663237325000E-01
    35  3.4000000000000E-01  9.9248168700538E-01 -4.1443003549823E-01
    36  3.5000000000000E-01  1.0158190185287E+00 -4.2139494814138E-01
    37  3.6000000000000E-01  1.0384756406007E+00 -4.2746896431667E-01
    38  3.7000000000000E-01  1.0604187282092E+00 -4.3259562314234E-01
    39  3.8000000000000E-01  1.0816160478830E+00 -4.3672056647856E-01
    40  3.9000000000000E-01  1.1020361111560E+00 -4.3979194306265E-01
    41  4.0000000000000E-01  1.1216483243947E+00 -4.4176079645578E-01
    42  4.1000000000000E-01  1.1404231338408E+00 -4.4258143338849E-01
    43  4.2000000000000E-01  1.1583321647733E+00 -4.4221176927491E-01
    44  4.3000000000000E-01  1.1753483537488E+00 -4.4061364787820E-01
    45  4.4000000000000E-01  1.1914460729538E+00 -4.3775313235105E-01
    46  4.5000000000000E-01  1.2066012457734E+00 -4.3360076514270E-01
    47  4.6000000000000E-01  1.2207914527729E+00 -4.2813179455470E-01
    48  4.7000000000000E-01  1.2339960273744E+00 -4.2132636604050E-01
    49  4.8000000000000E-01  1.2461961406131E+00 -4.1316967667374E-01
    50  4.9000000000000E-01  1.2573748744586E+00 -4.0365209155584E-01
    51  5.0000000000000E-01  1.2675172832969E+00 -3.9276922129036E-01
    52  5.1000000000000E-01  1.2766104432743E+00 -3.8052196001694E-01
    53  5.2000000000000E-01  1.2846434893242E+00 -3.6691648386817E-01
    54  5.3000000000000E-01  1.2916076398035E+00 -3.5196421008393E-01
    55  5.4000000000000E-01  1.2974962087872E+00 -3.3568171738755E-01
    56  5.5000000000000E-01  1.3023046061738E+00 -3.1809062859105E-01
    57  5.6000000000000E-01  1.3060303258721E+00 -2.9921745675142E-01
    58  5.7000000000000E-01  1.3086729224410E+00 -2.7909341654103E-01
    59  5.8000000000000E-01  1.3102339766595E+00 -2.5775420282028E-01
    60  5.9000000000000E-01  1.3107170506011E+00 -2.3523973870697E-01
    61  6.0000000000000E-01  1.3101276328760E+00 -2.1159389571992E-01
    62  6.1000000000000E-01  1.3084730747899E+00 -1.8686418883279E-01
    63  6.2000000000000E-01  1.3057625182439E+00 -1.6110144950457E-01
    64  6.3000000000000E-01  1.3020068162656E+00 -1.3435947995342E-01
    65  6.4000000000000E-01  1.2972184471211E+00 -1.0669469210865E-01
    66  6.5000000000000E-01  1.2914114230030E+00 -7.8165734809524E-02
    67  6.6000000000000E-01  1.2846011943295E+00 -4.8833112918396E-02
    68  6.7000000000000E-01  1.2768045507135E+00 -1.8758802077377E-02
    69  6.8000000000000E-01  1.2680395196772E+00  1.1994137137113E-02
    70  6.9000000000000E-01  1.2583252641922E+00  4.3361941920901E-02
    71  7.0000000000000E-01  1.2476819801171E+00  7.5280523119433E-02
    72  7.1000000000000E-01  1.2361307945863E+00  1.0768583067344E-01
    73  7.2000000000000E-01  1.2236936663744E+00  1.4051420515573E-01
    74  7.3000000000000E-01  1.2103932892212E+00  1.7370271208183E-01
    75  7.4000000000000E-01  1.1962529990502E+00  2.0718945587224E-01
    76  7.5000000000000E-01  1.1812966859528E+00  2.4091387057059E-01
    77  7.6000000000000E-01  1.1655487117447E+00  2.7481698467970E-01
    78  7.7000000000000E-01  1.1490338338150E+00  3.0884165776224E-01
    79  7.8000000000000E-01  1.1317771359120E+00  3.4293278676293E-01
    80  7.9000000000000E-01  1.1138039664065E+00  3.7703748034182E-01
    81  8.0000000000000E-01  1.0951398844840E+00  4.1110519985895E-01
    82  8.1000000000000E-01  1.0758106146058E+00  4.4508786601751E-01
    83  8.2000000000000E-01  1.0558420094749E+00  4.7893993055108E-01
    84  8.3000000000000E-01  1.0352600216315E+00  5.1261841272669E-01
    85  8.4000000000000E-01  1.0140906836895E+00  5.4608290082628E-01
    86  8.5000000000000E-01  9.9236009711449E-01  5.7929551915957E-01
    87  8.6000000000000E-01  9.7009442932938E-01  6.1222086154826E-01
    88  8.7000000000000E-01  9.4731991882585E-01  6.4482589260089E-01
    89  8.8000000000000E-01  9.2406288785211E-01  6.7707981846409E-01
    90  8.9000000000000E-01  9.0034976214454E-01  7.0895392908866E-01
    91  9.0000000000000E-01  8.7620709707376E-01  7.4042141438009E-01
    92  9.1000000000000E-01  8.5166160948524E-01  7.7145715691294E-01
    93  9.2000000000000E-01  8.2674021443053E-01  8.0203750417132E-01
    94  9.3000000000000E-01  8.0147006591124E-01  8.3214002353059E-01
    95  9.4000000000000E-01  7.7587860069170E-01  8.6174324341693E-01
    96  9.5000000000000E-01  7.4999358418137E-01  8.9082638426660E-01
    97  9.6000000000000E-01  7.2384315734338E-01  9.1936908305596E-01
    98  9.7000000000000E-01  6.9745588355241E-01  9.4735111528205E-01
    99  9.8000000000000E-01  6.7086079430416E-01  9.7475211834270E-01
   100  9.9000000000000E-01  6.4408743266946E-01  1.0015513202917E+00
   101  1.0000000000000E+00  6.1716589338996E-01  1.0277272779281E+00
   102  1.0100000000000E+00  5.9012685852830E-01  1.0532576281214E+00
   103  1.0200000000000E+00  5.6300162761470E-01  1.0781188561700E+00
   104  1.0300000000000E+00  5.3582214127319E-01  1.1022860848500E+00
   105  1.0400000000000E+00  5.0862099736416E-01  1.1257328876216E+00
   106  1.0500000000000E+00  4.8143145874552E-01  1.1484311292396E+00
   107  1.0600000000000E+00  4.5428745183131E-01  1.1703508367471E+00
   108  1.0700000000000E+00  4.2722355521393E-01  1.1914601035352E+00
   109  1.0800000000000E+00  4.0027497771369E-01  1.2117250288155E+00
   110  1.0900000000000E+00  3.7347752532550E-01  1.2311096944938E+00
   111  1.1000000000000E+00  3.4686755664720E-01  1.2495761810376E+00
   112  1.1100000000000E+00  3.2048192649518E-01  1.2670846235206E+00
   113  1.1200000000000E+00  2.9435791754094E-01  1.2835933085922E+00
   114  1.1300000000000E+00  2.6853315993348E-01  1.2990588126719E+00
   115  1.1400000000000E+00  2.4304553900880E-01  1.3134361812078E+00
   116  1.1500000000000E+00  2.1793309132439E-01  1.3266791483725E+00
   117  1.1600000000000E+00  1.9323388939583E-01  1.3387403961006E+00
   118  1.1700000000000E+00  1.6898591564922E-01  1.3495718509063E+00
   119  1.1800000000000E+00  1.4522692623956E-01  1.3591250164596E+00
   120  1.1900000000000E+00  1.2199430551652E-01  1.3673513394547E+00
   121  1.2000000000000E+00  9.9324912046695E-02  1.3742026058713E+00
   122  1.2100000000000E+00  7.7254917222272E-02  1.3796313643227E+00
   123  1.2200000000000E+00  5.5819637599280E-02  1.3835913727995E+00
   124  1.2300000000000E+00  3.5053362213917E-02  1.3860380647641E+00
   125  1.2400000000000E+00  1.4989176219545E-02  1.3869290302305E+00
   126  1.2500000000000E+00 -4.3412177286468E-03  1.3862245071795E+00
   127  1.2600000000000E+00 -2.2907678842879E-02  1.3838878784194E+00
   128  1.2700000000000E+00 -4.0681806768507E-02  1.3798861687989E+00
   129  1.2800000000000E+00 -5.7637117743470E-02  1.3741905375276E+00
   130  1.2900000000000E+00 -7.3749216718094E-02  1.3667767602553E+00
   131  1.3000000000000E+00 -8.8995963785572E-02  1.3576256955015E+00
   132  1.3100000000000E+00 -1.0335763327278E-01  1.3467237300271E+00
   133  1.3200000000000E+00 -1.1681706385583E-01  1.3340631977841E+00
   134  1.3300000000000E+00 -1.2935979809485E-01  1.3196427671798E+00
   135  1.3400000000000E+00 -1.4097420982822E-01  1.3034677915423E+00
   136  1.3500000000000E+00 -1.5165161792779E-01  1.2855506178791E+00
   137  1.3600000000000E+00 -1.6138638499249E-01  1.2659108492691E+00
   138  1.3700000000000E+00 -1.7017599964778E-01  1.2445755565310E+00
   139  1.3800000000000E+00 -1.7802114122343E-01  1.2215794351575E+00
   140  1.3900000000000E+00 -1.8492572569872E-01  1.1969649038930E+00
   141  1.4000000000000E+00 -1.9089693193401E-01  1.1707821417632E+00
   142  1.4100000000000E+00 -1.9594520734739E-01  1.1430890608309E+00
   143  1.4200000000000E+00 -2.0008425234625E-01  1.1139512124510E+00
   144  1.4300000000000E+00 -2.0333098298210E-01  1.0834416253265E+00
   145  1.4400000000000E+00 -2.0570547146330E-01  1.0516405742176E+00
   146  1.4500000000000E+00 -2.0723086433265E-01  1.0186352787265E+00
   147  1.4600000000000E+00 -2.0793327829321E-01  9.8451953216662E-01
   148  1.4700000000000E+00 -2.0784167384470E-01  9.4939326111571E-01
   149  1.4800000000000E+00 -2.0698770707391E-01  9.1336201685212E-01
   150  1.4900000000000E+00 -2.0540556012229E-01  8.7653640046683E-01
   151  1.5000000000000E+00 -2.0313175103178E-01  8.3903142403184E-01
   152  1.5100000000000E+00 -2.0020492384473E-01  8.0096581078022E-01
   153  1.5200000000000E+00 -1.9666562000238E-01  7.6246123780975E-01
   154  1.5300000000000E+00 -1.9255603224945E-01  7.2364152535694E-01
   155  1.5400000000000E+00 -1.8791974240519E-01  6.8463177718951E-01
   156  1.5500000000000E+00 -1.8280144450672E-01  6.4555747714231E-01
   157  1.5600000000000E+00 -1.7724665496279E-01  6.0654354725204E-01
   158  1.5700000000000E+00 -1.7130141147708E-01  5.6771337334064E-01
   159  1.5800000000000E+00 -1.6501196254927E-01  5.2918780380799E-01
   160  1.5900000000000E+00 -1.5842444955038E-01  4.9108412853225E-01
   161  1.6000000000000E+00 -1.5158458624814E-01  4.5351506508570E-01
   162  1.6100000000000E+00 -1.4453732743222E-01  4.1658768329119E-01
   163  1.6200000000000E+00 -1.3732678552963E-01  3.8040417387926E-01
   164  1.6300000000000E+00 -1.2999634484895E-01  3.4506386932620E-01
   165  1.6400000000000E+00 -1.2258854329642E-01  3.1066329693777E-01
   166  1.6500000000000E+00 -1.1514484478352E-01  2.7729536674873E-01
   167  1.6600000000000E+00 -1.0770542752961E-01  2.4504866595886E-01
   168  1.6700000000000E+00 -1.0030897701114E-01  2.1400676274779E-01
   169  1.6800000000000E+00 -9.2992487667201E-02  1.8424754391689E-01
   170  1.6900000000000E+00 -8.5791075243530E-02  1.5584259293437E-01
   171  1.7000000000000E+00 -7.8737801530548E-02  1.2885661434111E-01
   172  1.7100000000000E+00 -7.1863513132728E-02  1.0334690999678E-01
   173  1.7200000000000E+00 -6.5196695796547E-02  7.9362912256349E-02
   174  1.7300000000000E+00 -5.8763345661955E-02  5.6945778493590E-02
   175  1.7400000000000E+00 -5.2586858618949E-02  3.6128050642587E-02
   176  1.7500000000000E+00 -4.6687938819843E-02  1.6933383061967E-02
   177  1.7600000000000E+00 -4.1084527190657E-02 -6.2365879258823E-04
   178  1.7700000000000E+00 -3.5791750598438E-02 -1.6537727053565E-02
   179  1.7800000000000E+00 -3.0821892165810E-02 -3.0812746152934E-02
   180  1.7900000000000E+00 -2.6184383011942E-02 -4.3461893003740E-02
   181  1.8000000000000E+00 -2.1885815519775E-02 -5.4507502661842E-02
   182  1.8100000000000E+00 -1.7929978028802E-02 -6.3980900165788E-02
   183  1.8200000000000E+00 -1.4317910665837E-02 -7.1922159863529E-02
   184  1.8300000000000E+00 -1.1047981853708E-02 -7.8379794065916E-02
   185  1.8400000000000E+00 -8.1159848314083E-03 -8.3410373609697E-02
   186  1.8500000000000E+00 -5.5152533591520E-03 -8.7078083395422E-02
   187  1.8600000000000E+00 -3.2367956187630E-03 -8.9454216487313E-02
   188  1.8700000000000E+00 -1.2694451549654E-03 -9.0616610919100E-02
   189  1.8800000000000E+00  3.9997246207781E-04 -9.0649033923394E-02
   190  1.8900000000000E+00  1.7864586701514E-03 -8.9640518526783E-02
   191  1.9000000000000E+00  2.9066482276000E-03 -8.7684658091000E-02
   192  1.9100000000000E+00  3.7786044713285E-03 -8.4878864583374E-02
   193  1.9200000000000E+00  4.4216052978950E-03 -8.1323596753032E-02
   194  1.9300000000000E+00  4.8559217267653E-03 -7.7121564651536E-02
   195  1.9400000000000E+00  5.1025909525386E-03 -7.2376917049119E-02
   196  1.9500000000000E+00  5.1831858623730E-03 -6.7194418563563E-02
   197  1.9600000000000E+00  5.1195830290977E-03 -6.1678623426841E-02
   198  1.9700000000000E+00  4.9337356697669E-03 -5.5933066895944E-02
   199  1.9800000000000E+00  4.6474114351139E-03 -5.0059348159504E-02
   200  1.9900000000000E+00  4.2820592803323E-03 -4.4156623447131E-02
   201  2.0000000000000E+00  3.8584772967943E-03 -3.8320475935402E-02
   202  2.0100000000000E+00  3.3955466170545E-03 -3.2638837520833E-02
   203  2.0200000000000E+00  2.9071049320278E-03 -2.7182021349290E-02
   204  2.0300000000000E+00  2.4110090739528E-03 -2.2031277164245E-02
   205  2.0400000000000E+00  1.9261228364952E-03 -1.7269241050855E-02
   206  2.0500000000000E+00  1.4690824685846E-03 -1.2969672868506E-02
   207  2.0600000000000E+00  1.0547875892798E-03 -9.1989481684134E-03
   208  2.0700000000000E+00  6.9614909742459E-04 -6.0152151136085E-03
   209  2.0800000000000E+00  4.0411586313329E-04 -3.4692975339365E-03
   210  2.0900000000000E+00  1.8600855054627E-04 -1.5909207324294E-03
   211  2.1000000000000E+00  5.1864779486134E-05 -4.4344149409603E-04
   212  2.1100000000000E+00  1.3641130227212E-06 -1.2352858650308E-05
   213  2.1200000000000E+00 -2.0503697113025E-06  1.7306501025675E-05
   214  2.1300000000000E+00  1.0292002433461E-06 -8.7016621759599E-06
   215  2.1400 -0.  0.
   216  2.1500  0. -0.
   217  2.1600  0. -0.
   218  2.1700  0.  0.
   219  2.1800  0.  0.
   220  2.1900  0.  0.
   221  2.2000  0.  0.
   222  2.2100  0.  0.
   223  2.2200  0.  0.
   224  2.2300  0.  0.
   225  2.2400  0.  0.
   226  2.2500  0.  0.
   227  2.2600  0.  0.
   228  2.2700  0.  0.
   229  2.2800  0.  0.
   230  2.2900  0.  0.
   231  2.3000  0.  0.
   232  2.3100  0.  0.
   233  2.3200  0.  0.
   234  2.3300  0.  0.
   235  2.3400  0.  0.
   236  2.3500  0.  0.
   237  2.3600  0.  0.
   238  2.3700  0.  0.
   239  2.3800  0.  0.
   240  2.3900  0.  0.
   241  2.4000  0.  0.
   242  2.4100  0.  0.
   243  2.4200  0.  0.
   244  2.4300  0.  0.
   245  2.4400  0.  0.
   246  2.4500  0.  0.
   247  2.4600  0.  0.
   248  2.4700  0.  0.
   249  2.4800  0.  0.
   250  2.4900  0.  0.
   251  2.5000  0.  0.
   252  2.5100  0.  0.
   253  2.5200  0.  0.
   254  2.5300  0.  0.
   255  2.5400  0.  0.
   256  2.5500  0.  0.
   257  2.5600  0.  0.
   258  2.5700  0.  0.
   259  2.5800  0.  0.
   260  2.5900  0.  0.
   261  2.6000  0.  0.
   262  2.6100  0.  0.
   263  2.6200  0.  0.
   264  2.6300  0.  0.
   265  2.6400  0.  0.
   266  2.6500  0.  0.
   267  2.6600  0.  0.
   268  2.6700  0.  0.
   269  2.6800  0.  0.
   270  2.6900  0.  0.
   271  2.7000  0.  0.
   272  2.7100  0.  0.
   273  2.7200  0.  0.
   274  2.7300  0.  0.
   275  2.7400  0.  0.
   276  2.7500  0.  0.
   277  2.7600  0.  0.
   278  2.7700  0.  0.
   279  2.7800  0.  0.
   280  2.7900  0.  0.
   281  2.8000  0.  0.
   282  2.8100  0.  0.
   283  2.8200  0.  0.
   284  2.8300  0.  0.
   285  2.8400  0.  0.
   286  2.8500  0.  0.
   287  2.8600  0.  0.
   288  2.8700  0.  0.
   289  2.8800  0.  0.
   290  2.8900  0.  0.
   291  2.9000  0.  0.
   292  2.9100  0.  0.
   293  2.9200  0.  0.
   294  2.9300  0.  0.
   295  2.9400  0.  0.
   296  2.9500  0.  0.
   297  2.9600  0.  0.
   298  2.9700  0.  0.
   299  2.9800  0.  0.
   300  2.9900  0.  0.
   301  3.0000  0.  0.
   302  3.0100  0.  0.
   303  3.0200  0.  0.
   304  3.0300  0.  0.
   305  3.0400  0.  0.
   306  3.0500  0.  0.
   307  3.0600  0.  0.
   308  3.0700  0.  0.
   309  3.0800  0.  0.
   310  3.0900  0.  0.
   311  3.1000  0.  0.
   312  3.1100  0.  0.
   313  3.1200  0.  0.
   314  3.1300  0.  0.
   315  3.1400  0.  0.
   316  3.1500  0.  0.
   317  3.1600  0.  0.
   318  3.1700  0.  0.
   319  3.1800  0.  0.
   320  3.1900  0.  0.
   321  3.2000  0.  0.
   322  3.2100  0.  0.
   323  3.2200  0.  0.
   324  3.2300  0.  0.
   325  3.2400  0.  0.
   326  3.2500  0.  0.
   327  3.2600  0.  0.
   328  3.2700  0.  0.
   329  3.2800  0.  0.
   330  3.2900  0.  0.
   331  3.3000  0.  0.
   332  3.3100  0.  0.
   333  3.3200  0.  0.
   334  3.3300  0.  0.
   335  3.3400  0.  0.
   336  3.3500  0.  0.
   337  3.3600  0.  0.
   338  3.3700  0.  0.
   339  3.3800  0.  0.
   340  3.3900  0.  0.
   341  3.4000  0.  0.
   342  3.4100  0.  0.
   343  3.4200  0.  0.
   344  3.4300  0.  0.
   345  3.4400  0.  0.
   346  3.4500  0.  0.
   347  3.4600  0.  0.
   348  3.4700  0.  0.
   349  3.4800  0.  0.
   350  3.4900  0.  0.
   351  3.5000  0.  0.
   352  3.5100  0.  0.
   353  3.5200  0.  0.
   354  3.5300  0.  0.
   355  3.5400  0.  0.
   356  3.5500  0.  0.
   357  3.5600  0.  0.
   358  3.5700  0.  0.
   359  3.5800  0.  0.
   360  3.5900  0.  0.
   361  3.6000  0.  0.
   362  3.6100  0.  0.
   363  3.6200  0.  0.
   364  3.6300  0.  0.
   365  3.6400  0.  0.
   366  3.6500  0.  0.
   367  3.6600  0.  0.
   368  3.6700  0.  0.
   369  3.6800  0.  0.
   370  3.6900  0.  0.
   371  3.7000  0.  0.
   372  3.7100  0.  0.
   373  3.7200  0.  0.
   374  3.7300  0.  0.
   375  3.7400  0.  0.
   376  3.7500  0.  0.
   377  3.7600  0.  0.
   378  3.7700  0.  0.
   379  3.7800  0.  0.
   380  3.7900  0.  0.
   381  3.8000  0.  0.
   382  3.8100  0.  0.
   383  3.8200  0.  0.
   384  3.8300  0.  0.
   385  3.8400  0.  0.
   386  3.8500  0.  0.
   387  3.8600  0.  0.
   388  3.8700  0.  0.
   389  3.8800  0.  0.
   390  3.8900  0.  0.
   391  3.9000  0.  0.
   392  3.9100  0.  0.
   393  3.9200  0.  0.
   394  3.9300  0.  0.
   395  3.9400  0.  0.
   396  3.9500  0.  0.
   397  3.9600  0.  0.
   398  3.9700  0.  0.
   399  3.9800  0.  0.
   400  3.9900  0.  0.
   401  4.0000  0.  0.
   402  4.0100  0.  0.
   403  4.0200  0.  0.
   404  4.0300  0.  0.
   405  4.0400  0.  0.
   406  4.0500  0.  0.
   407  4.0600  0.  0.
   408  4.0700  0.  0.
   409  4.0800  0.  0.
   410  4.0900  0.  0.
   411  4.1000  0.  0.
   412  4.1100  0.  0.
   413  4.1200  0.  0.
   414  4.1300  0.  0.
   415  4.1400  0.  0.
   416  4.1500  0.  0.
   417  4.1600  0.  0.
   418  4.1700  0.  0.
   419  4.1800  0.  0.
   420  4.1900  0.  0.
   421  4.2000  0.  0.
   422  4.2100  0.  0.
   423  4.2200  0.  0.
   424  4.2300  0.  0.
   425  4.2400  0.  0.
   426  4.2500  0.  0.
   427  4.2600  0.  0.
   428  4.2700  0.  0.
   429  4.2800  0.  0.
   430  4.2900  0.  0.
   431  4.3000  0.  0.
   432  4.3100  0.  0.
   433  4.3200  0.  0.
   434  4.3300  0.  0.
   435  4.3400  0.  0.
   436  4.3500  0.  0.
   437  4.3600  0.  0.
   438  4.3700  0.  0.
   439  4.3800  0.  0.
   440  4.3900  0.  0.
   441  4.4000  0.  0.
   442  4.4100  0.  0.
   443  4.4200  0.  0.
   444  4.4300  0.  0.
   445  4.4400  0.  0.
   446  4.4500  0.  0.
   447  4.4600  0.  0.
   448  4.4700  0.  0.
   449  4.4800  0.  0.
   450  4.4900  0.  0.
   451  4.5000  0.  0.
   452  4.5100  0.  0.
   453  4.5200  0.  0.
   454  4.5300  0.  0.
   455  4.5400  0.  0.
   456  4.5500  0.  0.
   457  4.5600  0.  0.
   458  4.5700  0.  0.
   459  4.5800  0.  0.
   460  4.5900  0.  0.
   461  4.6000  0.  0.
   462  4.6100  0.  0.
   463  4.6200  0.  0.
   464  4.6300  0.  0.
   465  4.6400  0.  0.
   466  4.6500  0.  0.
   467  4.6600  0.  0.
   468  4.6700  0.  0.
   469  4.6800  0.  0.
   470  4.6900  0.  0.
   471  4.7000  0.  0.
   472  4.7100  0.  0.
   473  4.7200  0.  0.
   474  4.7300  0.  0.
   475  4.7400  0.  0.
   476  4.7500  0.  0.
   477  4.7600  0.  0.
   478  4.7700  0.  0.
   479  4.7800  0.  0.
   480  4.7900  0.  0.
   481  4.8000  0.  0.
   482  4.8100  0.  0.
   483  4.8200  0.  0.
   484  4.8300  0.  0.
   485  4.8400  0.  0.
   486  4.8500  0.  0.
   487  4.8600  0.  0.
   488  4.8700  0.  0.
   489  4.8800  0.  0.
   490  4.8900  0.  0.
   491  4.9000  0.  0.
   492  4.9100  0.  0.
   493  4.9200  0.  0.
   494  4.9300  0.  0.
   495  4.9400  0.  0.
   496  4.9500  0.  0.
   497  4.9600  0.  0.
   498  4.9700  0.  0.
   499  4.9800  0.  0.
   500  4.9900  0.  0.
   501  5.0000  0.  0.
   502  5.0100  0.  0.
   503  5.0200  0.  0.
   504  5.0300  0.  0.
   505  5.0400  0.  0.
   506  5.0500  0.  0.
   507  5.0600  0.  0.
   508  5.0700  0.  0.
   509  5.0800  0.  0.
   510  5.0900  0.  0.
   511  5.1000  0.  0.
   512  5.1100  0.  0.
   513  5.1200  0.  0.
   514  5.1300  0.  0.
   515  5.1400  0.  0.
   516  5.1500  0.  0.
   517  5.1600  0.  0.
   518  5.1700  0.  0.
   519  5.1800  0.  0.
   520  5.1900  0.  0.
   521  5.2000  0.  0.
   522  5.2100  0.  0.
   523  5.2200  0.  0.
   524  5.2300  0.  0.
   525  5.2400  0.  0.
   526  5.2500  0.  0.
   527  5.2600  0.  0.
   528  5.2700  0.  0.
   529  5.2800  0.  0.
   530  5.2900  0.  0.
   531  5.3000  0.  0.
   532  5.3100  0.  0.
   533  5.3200  0.  0.
   534  5.3300  0.  0.
   535  5.3400  0.  0.
   536  5.3500  0.  0.
   537  5.3600  0.  0.
   538  5.3700  0.  0.
   539  5.3800  0.  0.
   540  5.3900  0.  0.
   541  5.4000  0.  0.
   542  5.4100  0.  0.
   543  5.4200  0.  0.
   544  5.4300  0.  0.
   545  5.4400  0.  0.
   546  5.4500  0.  0.
   547  5.4600  0.  0.
   548  5.4700  0.  0.
   549  5.4800  0.  0.
   550  5.4900  0.  0.
   551  5.5000  0.  0.
   552  5.5100  0.  0.
   553  5.5200  0.  0.
   554  5.5300  0.  0.
   555  5.5400  0.  0.
   556  5.5500  0.  0.
   557  5.5600  0.  0.
   558  5.5700  0.  0.
   559  5.5800  0.  0.
   560  5.5900  0.  0.
   561  5.6000  0.  0.
   562  5.6100  0.  0.
   563  5.6200  0.  0.
   564  5.6300  0.  0.
   565  5.6400  0.  0.
   566  5.6500  0.  0.
   567  5.6600  0.  0.
   568  5.6700  0.  0.
   569  5.6800  0.  0.
   570  5.6900  0.  0.
   571  5.7000  0.  0.
   572  5.7100  0.  0.
   573  5.7200  0.  0.
   574  5.7300  0.  0.
   575  5.7400  0.  0.
   576  5.7500  0.  0.
   577  5.7600  0.  0.
   578  5.7700  0.  0.
   579  5.7800  0.  0.
   580  5.7900  0.  0.
   581  5.8000  0.  0.
   582  5.8100  0.  0.
   583  5.8200  0.  0.
   584  5.8300  0.  0.
   585  5.8400  0.  0.
   586  5.8500  0.  0.
   587  5.8600  0.  0.
   588  5.8700  0.  0.
   589  5.8800  0.  0.
   590  5.8900  0.  0.
   591  5.9000  0.  0.
   592  5.9100  0.  0.
   593  5.9200  0.  0.
   594  5.9300  0.  0.
   595  5.9400  0.  0.
   596  5.9500  0.  0.
   597  5.9600  0.  0.
   598  5.9700  0.  0.
   599  5.9800  0.  0.
   600  5.9900  0.  0.
   1                         4.4667511959210E+00  7.2723711053373E-01
     1  0.0000000000000E+00 -8.9330619290617E-11  1.0278479456449E-10
     2  1.0000000000000E-02 -3.2251880581861E-04  1.2828395797701E-03
     3  2.0000000000000E-02 -1.2862531200193E-03  5.1242730620540E-03
     4  3.0000000000000E-02 -2.8797561933101E-03  1.1503076116767E-02
     5  4.0000000000000E-02 -5.0840152741801E-03  2.0383979627210E-02
     6  5.0000000000000E-02 -7.8725492223059E-03  3.1717826710405E-02
     7  6.0000000000000E-02 -1.1211544898990E-02  4.5441792279112E-02
     8  7.0000000000000E-02 -1.5060032058794E-02  6.1479664863371E-02
     9  8.0000000000000E-02 -1.9370096377186E-02  7.9742190306584E-02
    10  9.0000000000000E-02 -2.4087130152228E-02  1.0012747683267E-01
    11  1.0000000000000E-01 -2.9150120112575E-02  1.2252146084341E-01
    12  1.1000000000000E-01 -3.4491971648519E-02  1.4679843264673E-01
    13  1.2000000000000E-01 -4.0039868656439E-02  1.7282162113534E-01
    14  1.3000000000000E-01 -4.5715668049400E-02  2.0044383622945E-01
    15  1.4000000000000E-01 -5.1436327837487E-02  2.2950816766642E-01
    16  1.5000000000000E-01 -5.7114367520732E-02  2.5984873846440E-01
    17  1.6000000000000E-01 -6.2658359365701E-02  2.9129151110571E-01
    18  1.7000000000000E-01 -6.7973448954608E-02  3.2365514418157E-01
    19  1.8000000000000E-01 -7.2961903204195E-02  3.5675189691291E-01
    20  1.9000000000000E-01 -7.7523683852035E-02  3.9038857861613E-01
    21  2.0000000000000E-01 -8.1557044201968E-02  4.2436753981998E-01
    22  2.1000000000000E-01 -8.4959146710118E-02  4.5848770136398E-01
    23  2.2000000000000E-01 -8.7626698780498E-02  4.9254561742472E-01
    24  2.3000000000000E-01 -8.9456603927278E-02  5.2633656802762E-01
    25  2.4000000000000E-01 -9.0346625251829E-02  5.5965567621401E-01
    26  2.5000000000000E-01 -9.0196057979767E-02  5.9229904465217E-01
    27  2.6000000000000E-01 -8.8906407609330E-02  6.2406490611159E-01
    28  2.7000000000000E-01 -8.6382070040600E-02  6.5475478186800E-01
    29  2.8000000000000E-01 -8.2531009888599E-02  6.8417464177965E-01
    30  2.9000000000000E-01 -7.7265433035224E-02  7.1213605947728E-01
    31  3.0000000000000E-01 -7.0502449348399E-02  7.3845735584881E-01
    32  3.1000000000000E-01 -6.2164721394865E-02  7.6296472377973E-01
    33  3.2000000000000E-01 -5.2181094898348E-02  7.8549332693722E-01
    34  3.3000000000000E-01 -4.0487206650208E-02  8.0588836526575E-01
    35  3.4000000000000E-01 -2.7026065567456E-02  8.2400609979819E-01
    36  3.5000000000000E-01 -1.1748602615208E-02  8.3971482938423E-01
    37  3.6000000000000E-01  5.3858146308403E-03  8.5289581200034E-01
    38  3.7000000000000E-01  2.4408906910304E-02  8.6344412343508E-01
    39  3.8000000000000E-01  4.5343051686084E-02  8.7126944634343E-01
    40  3.9000000000000E-01  6.8200898854410E-02  8.7629678293357E-01
    41  4.0000000000000E-01  9.2985037364050E-02  8.7846708489151E-01
    42  4.1000000000000E-01  1.1968771610005E-01  8.7773779456110E-01
    43  4.2000000000000E-01  1.4829062209790E-01  8.7408329187846E-01
    44  4.3000000000000E-01  1.7876471882795E-01  8.6749524210892E-01
    45  4.4000000000000E-01  2.1107014692925E-01  8.5798284004680E-01
    46  4.5000000000000E-01  2.4515618937916E-01  8.4557294701089E-01
    47  4.6000000000000E-01  2.8096130266261E-01  8.3031011769536E-01
    48  4.7000000000000E-01  3.1841321505642E-01  8.1225651471184E-01
    49  4.8000000000000E-01  3.5742909267280E-01  7.9149170947669E-01
    50  4.9000000000000E-01  3.9791577341680E-01  7.6811236895107E-01
    51  5.0000000000000E-01  4.3977006850802E-01  7.4223182862173E-01
    52  5.1000000000000E-01  4.8287913070421E-01  7.1397955301019E-01
    53  5.2000000000000E-01  5.2712088784553E-01  6.8350048590705E-01
    54  5.3000000000000E-01  5.7236453982095E-01  6.5095429343856E-01
    55  5.4000000000000E-01  6.1847111654569E-01  6.1651450397371E-01
    56  5.5000000000000E-01  6.6529409403693E-01  5.8036754976348E-01
    57  5.6000000000000E-01  7.1268006518955E-01  5.4271171605945E-01
    58  5.7000000000000E-01  7.6046946138844E-01  5.0375600427748E-01
    59  5.8000000000000E-01  8.0849732065553E-01  4.6371891654413E-01
    60  5.9000000000000E-01  8.5659409762140E-01  4.2282716968141E-01
    61  6.0000000000000E-01  9.0458651023874E-01  3.8131434733890E-01
    62  6.1000000000000E-01  9.5229841782146E-01  3.3941949956600E-01
    63  6.2000000000000E-01  9.9955172470352E-01  2.9738569962209E-01
    64  6.3000000000000E-01  1.0461673035680E+00  2.5545856824391E-01
    65  6.4000000000000E-01  1.0919659323035E+00  2.1388477592120E-01
    66  6.5000000000000E-01  1.1367692381028E+00  1.7291053396985E-01
    67  6.6000000000000E-01  1.1804006424319E+00  1.3278008533327E-01
    68  6.7000000000000E-01  1.2226863004635E+00  9.3734206084191E-02
    69  6.8000000000000E-01  1.2634560285938E+00  5.6008728540882E-02
    70  6.9000000000000E-01  1.3025442137386E+00  1.9833096752500E-02
    71  7.0000000000000E-01  1.3397906982421E+00 -1.4571035149772E-02
    72  7.1000000000000E-01  1.3750416344162E+00 -4.6991151594779E-02
    73  7.2000000000000E-01  1.4081503029740E+00 -7.7225161514506E-02
    74  7.3000000000000E-01  1.4389778899087E+00 -1.0508261243460E-01
    75  7.4000000000000E-01  1.4673942167091E+00 -1.3038582418050E-01
    76  7.5000000000000E-01  1.4932784191853E+00 -1.5297093436685E-01
    77  7.6000000000000E-01  1.5165195705995E+00 -1.7268884860703E-01
    78  7.7000000000000E-01  1.5370172452545E+00 -1.8940608921070E-01
    79  7.8000000000000E-01  1.5546820191816E+00 -2.0300553702107E-01
    80  7.9000000000000E-01  1.5694359050826E+00 -2.1338706197123E-01
    81  8.0000000000000E-01  1.5812127192145E+00 -2.2046803889953E-01