Se    ONCVPSP-4.0.1  r_core=   2.11097   1.87294   2.11097
     34.0000     16.0000      210716    zatom,zion,pspd
     8      11   2     4   600     0    pspcod,pspxc,lmax,lloc,mmax,r2well
  5.99000000  5.00000000  0.00000000    rchrg fchrg qchrg
     2     2     2     0     0    nproj
     1     1           extension_switch
   0                         6.3519930151627E+00  1.3159926062764E+00
     1  0.0000000000000E+00 -1.4788603674987E-10  1.8710358262730E-10
     2  1.0000000000000E-02  4.7331631096093E-02 -1.7450405636673E-02
     3  2.0000000000000E-02  9.4518453613784E-02 -3.4752384497881E-02
     4  3.0000000000000E-02  1.4141653529121E-01 -5.1758540861374E-02
     5  4.0000000000000E-02  1.8788369070325E-01 -6.8323533982469E-02
     6  5.0000000000000E-02  2.3378034022665E-01 -8.4305087808202E-02
     7  6.0000000000000E-02  2.7897035176610E-01 -9.9564979494731E-02
     8  7.0000000000000E-02  3.2332185966921E-01 -1.1396999988285E-01
     9  8.0000000000000E-02  3.6670805540611E-01 -1.2739287927357E-01
    10  9.0000000000000E-02  4.0900794477245E-01 -1.3971317207748E-01
    11  1.0000000000000E-01  4.5010706659213E-01 -1.5081809418621E-01
    12  1.1000000000000E-01  4.8989816814559E-01 -1.6060330723042E-01
    13  1.2000000000000E-01  5.2828183283104E-01 -1.6897364424418E-01
    14  1.3000000000000E-01  5.6516705587639E-01 -1.7584377164754E-01
    15  1.4000000000000E-01  6.0047176425748E-01 -1.8113878288644E-01
    16  1.5000000000000E-01  6.3412327734193E-01 -1.8479471952720E-01
    17  1.6000000000000E-01  6.6605870516405E-01 -1.8675901609065E-01
    18  1.7000000000000E-01  6.9622528164340E-01 -1.8699086542357E-01
    19  1.8000000000000E-01  7.2458063048470E-01 -1.8546150194102E-01
    20  1.9000000000000E-01  7.5109296193735E-01 -1.8215440062720E-01
    21  2.0000000000000E-01  7.7574119904579E-01 -1.7706539025221E-01
    22  2.1000000000000E-01  7.9851503248485E-01 -1.7020267984355E-01
    23  2.2000000000000E-01  8.1941490354383E-01 -1.6158679804013E-01
    24  2.3000000000000E-01  8.3845191529650E-01 -1.5125044555005E-01
    25  2.4000000000000E-01  8.5564767246826E-01 -1.3923826152649E-01
    26  2.5000000000000E-01  8.7103405098386E-01 -1.2560650526572E-01
    27  2.6000000000000E-01  8.8465289864560E-01 -1.1042265521327E-01
    28  2.7000000000000E-01  8.9655566885019E-01 -9.3764927834621E-02
    29  2.8000000000000E-01  9.0680298969985E-01 -7.5721719462001E-02
    30  2.9000000000000E-01  9.1546417129583E-01 -5.6390974765228E-02
    31  3.0000000000000E-01  9.2261665441882E-01 -3.5879486008022E-02
    32  3.1000000000000E-01  9.2834540419668E-01 -1.4302127738924E-02
    33  3.2000000000000E-01  9.3274225273417E-01  8.2189679756852E-03
    34  3.3000000000000E-01  9.3590519502806E-01  3.1555290243337E-02
    35  3.4000000000000E-01  9.3793764281364E-01  5.5572876038232E-02
    36  3.5000000000000E-01  9.3894764128059E-01  8.0133278619263E-02
    37  3.6000000000000E-01  9.3904705385819E-01  1.0509457108569E-01
    38  3.7000000000000E-01  9.3835072049769E-01  1.3031237821437E-01
    39  3.8000000000000E-01  9.3697559507353E-01  1.5564092949833E-01
    40  3.9000000000000E-01  9.3503986768235E-01  1.8093412612939E-01
    41  4.0000000000000E-01  9.3266207773894E-01  2.0604661453802E-01
    42  4.1000000000000E-01  9.2996022385050E-01  2.3083485902328E-01
    43  4.2000000000000E-01  9.2705087649327E-01  2.5515820597542E-01
    44  4.3000000000000E-01  9.2404829951975E-01  2.7887993221317E-01
    45  4.4000000000000E-01  9.2106358648859E-01  3.0186827002837E-01
    46  4.5000000000000E-01  9.1820381773419E-01  3.2399740165097E-01
    47  4.6000000000000E-01  9.1557124397836E-01  3.4514841601735E-01
    48  4.7000000000000E-01  9.1326250213343E-01  3.6521022094471E-01
    49  4.8000000000000E-01  9.1136786875511E-01  3.8408040408028E-01
    50  4.9000000000000E-01  9.0997055637587E-01  4.0166603630788E-01
    51  5.0000000000000E-01  9.0914605768625E-01  4.1788441165129E-01
    52  5.1000000000000E-01  9.0896154223454E-01  4.3266371811396E-01
    53  5.2000000000000E-01  9.0947530998603E-01  4.4594363433410E-01
    54  5.3000000000000E-01  9.1073630572337E-01  4.5767584741122E-01
    55  5.4000000000000E-01  9.1278369788253E-01  4.6782448777117E-01
    56  5.5000000000000E-01  9.1564652500537E-01  4.7636647747928E-01
    57  5.6000000000000E-01  9.1934341255411E-01  4.8329178898084E-01
    58  5.7000000000000E-01  9.2388236237626E-01  4.8860361184247E-01
    59  5.8000000000000E-01  9.2926061663503E-01  4.9231842568201E-01
    60  5.9000000000000E-01  9.3546459753180E-01  4.9446597810510E-01
    61  6.0000000000000E-01  9.4246992364752E-01  4.9508916710949E-01
    62  6.1000000000000E-01  9.5024150322265E-01  4.9424382806854E-01
    63  6.2000000000000E-01  9.5873370418221E-01  4.9199842605998E-01
    64  6.3000000000000E-01  9.6789060019916E-01  4.8843365495935E-01
    65  6.4000000000000E-01  9.7764629157681E-01  4.8364194536630E-01
    66  6.5000000000000E-01  9.8792529922455E-01  4.7772688407085E-01
    67  6.6000000000000E-01  9.9864302950297E-01  4.7080254839191E-01
    68  6.7000000000000E-01  1.0097063072284E+00  4.6299275932766E-01
    69  6.8000000000000E-01  1.0210139736562E+00  4.5443025804187E-01
    70  6.9000000000000E-01  1.0324575458095E+00  4.4525581076877E-01
    71  7.0000000000000E-01  1.0439219330898E+00  4.3561724774700E-01
    72  7.1000000000000E-01  1.0552862066996E+00  4.2566844228681E-01
    73  7.2000000000000E-01  1.0664244170271E+00  4.1556823653099E-01
    74  7.3000000000000E-01  1.0772064537971E+00  4.0547932088464E-01
    75  7.4000000000000E-01  1.0874989434726E+00  3.9556707446004E-01
    76  7.5000000000000E-01  1.0971661781136E+00  3.8599837420627E-01
    77  7.6000000000000E-01  1.1060710696513E+00  3.7694038066753E-01
    78  7.7000000000000E-01  1.1140761233345E+00  3.6855930853675E-01
    79  7.8000000000000E-01  1.1210444239366E+00  3.6101919033918E-01
    80  7.9000000000000E-01  1.1268406281887E+00  3.5448064169475E-01
    81  8.0000000000000E-01  1.1313319568243E+00  3.4909963666449E-01
    82  8.1000000000000E-01  1.1343891795831E+00  3.4502630168655E-01
    83  8.2000000000000E-01  1.1358875865286E+00  3.4240373654881E-01
    84  8.3000000000000E-01  1.1357079390849E+00  3.4136687073041E-01
    85  8.4000000000000E-01  1.1337373942947E+00  3.4204136327013E-01
    86  8.5000000000000E-01  1.1298703959375E+00  3.4454255409141E-01
    87  8.6000000000000E-01  1.1240095263335E+00  3.4897447442700E-01
    88  8.7000000000000E-01  1.1160663128774E+00  3.5542892364825E-01
    89  8.8000000000000E-01  1.1059619836195E+00  3.6398461941159E-01
    90  8.9000000000000E-01  1.0936281665098E+00  3.7470642759397E-01
    91  9.0000000000000E-01  1.0790075272678E+00  3.8764467800026E-01
    92  9.1000000000000E-01  1.0620543412181E+00  4.0283457129237E-01
    93  9.2000000000000E-01  1.0427349948426E+00  4.2029568201612E-01
    94  9.3000000000000E-01  1.0210284132446E+00  4.4003156199014E-01
    95  9.4000000000000E-01  9.9692641018651E-01  4.6202944767628E-01
    96  9.5000000000000E-01  9.7043395786353E-01  4.8626007447567E-01
    97  9.6000000000000E-01  9.4156937408604E-01  5.1267760019616E-01
    98  9.7000000000000E-01  9.1036442508405E-01  5.4121963921510E-01
    99  9.8000000000000E-01  8.7686434269346E-01  5.7180740812683E-01
   100  9.9000000000000E-01  8.4112775524684E-01  6.0434598291623E-01
   101  1.0000000000000E+00  8.0322653205901E-01  6.3872466694784E-01
   102  1.0100000000000E+00  7.6324554197088E-01  6.7481746830566E-01
   103  1.0200000000000E+00  7.2128232698668E-01  7.1248368427017E-01
   104  1.0300000000000E+00  6.7744669260784E-01  7.5156858997884E-01
   105  1.0400000000000E+00  6.3186021702744E-01  7.9190422759172E-01
   106  1.0500000000000E+00  5.8465568189733E-01  8.3331029157769E-01
   107  1.0600000000000E+00  5.3597642791320E-01  8.7559510505655E-01
   108  1.0700000000000E+00  4.8597563897692E-01  9.1855668148012E-01
   109  1.0800000000000E+00  4.3481555918626E-01  9.6198386531884E-01
   110  1.0900000000000E+00  3.8266664736727E-01  1.0056575448410E+00
   111  1.1000000000000E+00  3.2970667429993E-01  1.0493519295355E+00
   112  1.1100000000000E+00  2.7611976819012E-01  1.0928358842418E+00
   113  1.1200000000000E+00  2.2209541430894E-01  1.1358743116076E+00
   114  1.1300000000000E+00  1.6782741504850E-01  1.1782295741156E+00
   115  1.1400000000000E+00  1.1351281693285E-01  1.2196629465874E+00
   116  1.1500000000000E+00  5.9350811367390E-02  1.2599360898061E+00
   117  1.1600000000000E+00  5.5416161120080E-03  1.2988125356924E+00
   118  1.1700000000000E+00 -4.7714655382472E-02  1.3360591743241E+00
   119  1.1800000000000E+00 -1.0021912952734E-01  1.3714477330113E+00
   120  1.1900000000000E+00 -1.5177530573249E-01  1.4047562376254E+00
   121  1.2000000000000E+00 -2.0219017981035E-01  1.4357704464355E+00
   122  1.2100000000000E+00 -2.5127535037074E-01  1.4642852468236E+00
   123  1.2200000000000E+00 -2.9884810101848E-01  1.4901060054386E+00
   124  1.2300000000000E+00 -3.4473245130391E-01  1.5130498625969E+00
   125  1.2400000000000E+00 -3.8876016956088E-01  1.5329469620567E+00
   126  1.2500000000000E+00 -4.3077174100063E-01  1.5496416076663E+00
   127  1.2600000000000E+00 -4.7061728470786E-01  1.5629933388277E+00
   128  1.2700000000000E+00 -5.0815741350674E-01  1.5728779172065E+00
   129  1.2800000000000E+00 -5.4326403103000E-01  1.5791882176728E+00
   130  1.2900000000000E+00 -5.7582106072709E-01  1.5818350170546E+00
   131  1.3000000000000E+00 -6.0572510198677E-01  1.5807476749287E+00
   132  1.3100000000000E+00 -6.3288600902587E-01  1.5758747013693E+00
   133  1.3200000000000E+00 -6.5722738870000E-01  1.5671842072976E+00
   134  1.3300000000000E+00 -6.7868701392363E-01  1.5546642338346E+00
   135  1.3400000000000E+00 -6.9721714994527E-01  1.5383229578544E+00
   136  1.3500000000000E+00 -7.1278479129877E-01  1.5181887717421E+00
   137  1.3600000000000E+00 -7.2537180784544E-01  1.4943102361931E+00
   138  1.3700000000000E+00 -7.3497499892427E-01  1.4667559057305E+00
   139  1.3800000000000E+00 -7.4160605524338E-01  1.4356140274684E+00
   140  1.3900000000000E+00 -7.4529142876026E-01  1.4009921144944E+00
   141  1.4000000000000E+00 -7.4607211141560E-01  1.3630163960920E+00
   142  1.4100000000000E+00 -7.4400332419510E-01  1.3218311478498E+00
   143  1.4200000000000E+00 -7.3915411859809E-01  1.2775979055266E+00
   144  1.4300000000000E+00 -7.3160689317962E-01  1.2304945673289E+00
   145  1.4400000000000E+00 -7.2145682840459E-01  1.1807143900246E+00
   146  1.4500000000000E+00 -7.0881124360321E-01  1.1284648850451E+00
   147  1.4600000000000E+00 -6.9378888034198E-01  1.0739666214237E+00
   148  1.4700000000000E+00 -6.7651911702053E-01  1.0174519430602E+00
   149  1.4800000000000E+00 -6.5714111996946E-01  9.5916360840891E-01
   150  1.4900000000000E+00 -6.3580293675168E-01  8.9935336122849E-01
   151  1.5000000000000E+00 -6.1266053775939E-01  8.3828044152578E-01
   152  1.5100000000000E+00 -5.8787681254697E-01  7.7621004625384E-01
   153  1.5200000000000E+00 -5.6162052764384E-01  7.1341174969291E-01
   154  1.5300000000000E+00 -5.3406525284917E-01  6.5015789374208E-01
   155  1.5400000000000E+00 -5.0538826321971E-01  5.8672195858172E-01
   156  1.5500000000000E+00 -4.7576942412247E-01  5.2337692432853E-01
   157  1.5600000000000E+00 -4.4539006683305E-01  4.6039363439450E-01
   158  1.5700000000000E+00 -4.1443186221820E-01  3.9803917127837E-01
   159  1.5800000000000E+00 -3.8307570004672E-01  3.3657525546262E-01
   160  1.5900000000000E+00 -3.5150058142674E-01  2.7625667796041E-01
   161  1.6000000000000E+00 -3.1988253176865E-01  2.1732977685692E-01
   162  1.6100000000000E+00 -2.8839354152396E-01  1.6003096791778E-01
   163  1.6200000000000E+00 -2.5720054175033E-01  1.0458533899727E-01
   164  1.6300000000000E+00 -2.2646442130493E-01  5.1205317571544E-02
   165  1.6400000000000E+00 -1.9633909217248E-01  8.9420250357393E-05
   166  1.6500000000000E+00 -1.6697060909420E-01 -4.8578907411626E-02
   167  1.6600000000000E+00 -1.3849634928050E-01 -9.4632353073716E-02
   168  1.6700000000000E+00 -1.1104425756727E-01 -1.3792069465169E-01
   169  1.6800000000000E+00 -8.4732161915934E-02 -1.7831164585070E-01
   170  1.6900000000000E+00 -5.9667163663321E-02 -2.1569158453334E-01
   171  1.7000000000000E+00 -3.5945106404086E-02 -2.4996615904473E-01
   172  1.7100000000000E+00 -1.3650126837400E-02 -2.8106076842826E-01
   173  1.7200000000000E+00  7.1457096628363E-03 -3.0892091330567E-01
   174  1.7300000000000E+00  2.6382686586807E-02 -3.3351241505795E-01
   175  1.7400000000000E+00  4.4013625375210E-02 -3.5482150182389E-01
   176  1.7500000000000E+00  6.0003985136183E-02 -3.7285476081866E-01
   177  1.7600000000000E+00  7.4331872654521E-02 -3.8763895721557E-01
   178  1.7700000000000E+00  8.6987961443205E-02 -3.9922071567372E-01
   179  1.7800000000000E+00  9.7975329713254E-02 -4.0766609639078E-01
   180  1.7900000000000E+00  1.0730913824912E-01 -4.1305979955330E-01
   181  1.8000000000000E+00  1.1501615651820E-01 -4.1550403202402E-01
   182  1.8100000000000E+00  1.2113427165998E-01 -4.1511748359456E-01
   183  1.8200000000000E+00  1.2571198810706E-01 -4.1203442228060E-01
   184  1.8300000000000E+00  1.2880784672311E-01 -4.0640365939130E-01
   185  1.8400000000000E+00  1.3048977731736E-01 -3.9838742370166E-01
   186  1.8500000000000E+00  1.3083438778869E-01 -3.8816014677706E-01
   187  1.8600000000000E+00  1.2992619513983E-01 -3.7590716748885E-01
   188  1.8700000000000E+00  1.2785680406797E-01 -3.6182336453870E-01
   189  1.8800000000000E+00  1.2472403914220E-01 -3.4611172611723E-01
   190  1.8900000000000E+00  1.2063103689883E-01 -3.2898186627836E-01
   191  1.9000000000000E+00  1.1568530445844E-01 -3.1064849798538E-01
   192  1.9100000000000E+00  1.0999775147701E-01 -2.9132987303500E-01
   193  1.9200000000000E+00  1.0368170242092E-01 -2.7124619929927E-01
   194  1.9300000000000E+00  9.6851896289777E-02 -2.5061804590831E-01
   195  1.9400000000000E+00  8.9623480981985E-02 -2.2966474706118E-01
   196  1.9500000000000E+00  8.2111009511689E-02 -2.0860281512966E-01
   197  1.9600000000000E+00  7.4427445289298E-02 -1.8764437374025E-01
   198  1.9700000000000E+00  6.6683190591645E-02 -1.6699563018987E-01
   199  1.9800000000000E+00  5.8985078503277E-02 -1.4685531298030E-01
   200  1.9900000000000E+00  5.1435598169727E-02 -1.2741341785119E-01
   201  2.0000000000000E+00  4.4131805151418E-02 -1.0884956860605E-01
   202  2.0100000000000E+00  3.7162879538912E-02 -9.1329680411911E-02
   203  2.0200000000000E+00  3.0605002256478E-02 -7.4999245154695E-02
   204  2.0300000000000E+00  2.4535038725817E-02 -6.0000460841233E-02
   205  2.0400000000000E+00  1.9025172985621E-02 -4.6465238158351E-02
   206  2.0500000000000E+00  1.4137061602245E-02 -3.4507620406129E-02
   207  2.0600000000000E+00  9.9224413594585E-03 -2.4224404187576E-02
   208  2.0700000000000E+00  6.4224800189757E-03 -1.5694187922901E-02
   209  2.0800000000000E+00  3.6687444165133E-03 -8.9801439791763E-03
   210  2.0900000000000E+00  1.6696167491749E-03 -4.0965725062043E-03
   211  2.1000000000000E+00  4.6413198882939E-04 -1.1424444821189E-03
   212  2.1100000000000E+00  1.5126936202965E-05 -3.7245686092601E-05
   213  2.1200000000000E+00 -1.7833559380267E-05  4.4167082505027E-05
   214  2.1300000000000E+00  8.8213003342941E-06 -2.1777989414521E-05
   215  2.14 -0.  0.
   216  2.15 -0.  0.
   217  2.16 -0.  0.
   218  2.17  0.  0.
   219  2.18  0.  0.
   220  2.19  0.  0.
   221  2.20  0.  0.
   222  2.21  0.  0.
   223  2.22  0.  0.
   224  2.23  0.  0.
   225  2.24  0.  0.
   226  2.25  0.  0.
   227  2.26  0.  0.
   228  2.27  0.  0.
   229  2.28  0.  0.
   230  2.29  0.  0.
   231  2.30  0.  0.
   232  2.31  0.  0.
   233  2.32  0.  0.
   234  2.33  0.  0.
   235  2.34  0.  0.
   236  2.35  0.  0.
   237  2.36  0.  0.
   238  2.37  0.  0.
   239  2.38  0.  0.
   240  2.39  0.  0.
   241  2.40  0.  0.
   242  2.41  0.  0.
   243  2.42  0.  0.
   244  2.43  0.  0.
   245  2.44  0.  0.
   246  2.45  0.  0.
   247  2.46  0.  0.
   248  2.47  0.  0.
   249  2.48  0.  0.
   250  2.49  0.  0.
   251  2.50  0.  0.
   252  2.51  0.  0.
   253  2.52  0.  0.
   254  2.53  0.  0.
   255  2.54  0.  0.
   256  2.55  0.  0.
   257  2.56  0.  0.
   258  2.57  0.  0.
   259  2.58  0.  0.
   260  2.59  0.  0.
   261  2.60  0.  0.
   262  2.61  0.  0.
   263  2.62  0.  0.
   264  2.63  0.  0.
   265  2.64  0.  0.
   266  2.65  0.  0.
   267  2.66  0.  0.
   268  2.67  0.  0.
   269  2.68  0.  0.
   270  2.69  0.  0.
   271  2.70  0.  0.
   272  2.71  0.  0.
   273  2.72  0.  0.
   274  2.73  0.  0.
   275  2.74  0.  0.
   276  2.75  0.  0.
   277  2.76  0.  0.
   278  2.77  0.  0.
   279  2.78  0.  0.
   280  2.79  0.  0.
   281  2.80  0.  0.
   282  2.81  0.  0.
   283  2.82  0.  0.
   284  2.83  0.  0.
   285  2.84  0.  0.
   286  2.85  0.  0.
   287  2.86  0.  0.
   288  2.87  0.  0.
   289  2.88  0.  0.
   290  2.89  0.  0.
   291  2.90  0.  0.
   292  2.91  0.  0.
   293  2.92  0.  0.
   294  2.93  0.  0.
   295  2.94  0.  0.
   296  2.95  0.  0.
   297  2.96  0.  0.
   298  2.97  0.  0.
   299  2.98  0.  0.
   300  2.99  0.  0.
   301  3.00  0.  0.
   302  3.01  0.  0.
   303  3.02  0.  0.
   304  3.03  0.  0.
   305  3.04  0.  0.
   306  3.05  0.  0.
   307  3.06  0.  0.
   308  3.07  0.  0.
   309  3.08  0.  0.
   310  3.09  0.  0.
   311  3.10  0.  0.
   312  3.11  0.  0.
   313  3.12  0.  0.
   314  3.13  0.  0.
   315  3.14  0.  0.
   316  3.15  0.  0.
   317  3.16  0.  0.
   318  3.17  0.  0.
   319  3.18  0.  0.
   320  3.19  0.  0.
   321  3.20  0.  0.
   322  3.21  0.  0.
   323  3.22  0.  0.
   324  3.23  0.  0.
   325  3.24  0.  0.
   326  3.25  0.  0.
   327  3.26  0.  0.
   328  3.27  0.  0.
   329  3.28  0.  0.
   330  3.29  0.  0.
   331  3.30  0.  0.
   332  3.31  0.  0.
   333  3.32  0.  0.
   334  3.33  0.  0.
   335  3.34  0.  0.
   336  3.35  0.  0.
   337  3.36  0.  0.
   338  3.37  0.  0.
   339  3.38  0.  0.
   340  3.39  0.  0.
   341  3.40  0.  0.
   342  3.41  0.  0.
   343  3.42  0.  0.
   344  3.43  0.  0.
   345  3.44  0.  0.
   346  3.45  0.  0.
   347  3.46  0.  0.
   348  3.47  0.  0.
   349  3.48  0.  0.
   350  3.49  0.  0.
   351  3.50  0.  0.
   352  3.51  0.  0.
   353  3.52  0.  0.
   354  3.53  0.  0.
   355  3.54  0.  0.
   356  3.55  0.  0.
   357  3.56  0.  0.
   358  3.57  0.  0.
   359  3.58  0.  0.
   360  3.59  0.  0.
   361  3.60  0.  0.
   362  3.61  0.  0.
   363  3.62  0.  0.
   364  3.63  0.  0.
   365  3.64  0.  0.
   366  3.65  0.  0.
   367  3.66  0.  0.
   368  3.67  0.  0.
   369  3.68  0.  0.
   370  3.69  0.  0.
   371  3.70  0.  0.
   372  3.71  0.  0.
   373  3.72  0.  0.
   374  3.73  0.  0.
   375  3.74  0.  0.
   376  3.75  0.  0.
   377  3.76  0.  0.
   378  3.77  0.  0.
   379  3.78  0.  0.
   380  3.79  0.  0.
   381  3.80  0.  0.
   382  3.81  0.  0.
   383  3.82  0.  0.
   384  3.83  0.  0.
   385  3.84  0.  0.
   386  3.85  0.  0.
   387  3.86  0.  0.
   388  3.87  0.  0.
   389  3.88  0.  0.
   390  3.89  0.  0.
   391  3.90  0.  0.
   392  3.91  0.  0.
   393  3.92  0.  0.
   394  3.93  0.  0.
   395  3.94  0.  0.
   396  3.95  0.  0.
   397  3.96  0.  0.
   398  3.97  0.  0.
   399  3.98  0.  0.
   400  3.99  0.  0.
   401  4.00  0.  0.
   402  4.01  0.  0.
   403  4.02  0.  0.
   404  4.03  0.  0.
   405  4.04  0.  0.
   406  4.05  0.  0.
   407  4.06  0.  0.
   408  4.07  0.  0.
   409  4.08  0.  0.
   410  4.09  0.  0.
   411  4.10  0.  0.
   412  4.11  0.  0.
   413  4.12  0.  0.
   414  4.13  0.  0.
   415  4.14  0.  0.
   416  4.15  0.  0.
   417  4.16  0.  0.
   418  4.17  0.  0.
   419  4.18  0.  0.
   420  4.19  0.  0.
   421  4.20  0.  0.
   422  4.21  0.  0.
   423  4.22  0.  0.
   424  4.23  0.  0.
   425  4.24  0.  0.
   426  4.25  0.  0.
   427  4.26  0.  0.
   428  4.27  0.  0.
   429  4.28  0.  0.
   430  4.29  0.  0.
   431  4.30  0.  0.
   432  4.31  0.  0.
   433  4.32  0.  0.
   434  4.33  0.  0.
   435  4.34  0.  0.
   436  4.35  0.  0.
   437  4.36  0.  0.
   438  4.37  0.  0.
   439  4.38  0.  0.
   440  4.39  0.  0.
   441  4.40  0.  0.
   442  4.41  0.  0.
   443  4.42  0.  0.
   444  4.43  0.  0.
   445  4.44  0.  0.
   446  4.45  0.  0.
   447  4.46  0.  0.
   448  4.47  0.  0.
   449  4.48  0.  0.
   450  4.49  0.  0.
   451  4.50  0.  0.
   452  4.51  0.  0.
   453  4.52  0.  0.
   454  4.53  0.  0.
   455  4.54  0.  0.
   456  4.55  0.  0.
   457  4.56  0.  0.
   458  4.57  0.  0.
   459  4.58  0.  0.
   460  4.59  0.  0.
   461  4.60  0.  0.
   462  4.61  0.  0.
   463  4.62  0.  0.
   464  4.63  0.  0.
   465  4.64  0.  0.
   466  4.65  0.  0.
   467  4.66  0.  0.
   468  4.67  0.  0.
   469  4.68  0.  0.
   470  4.69  0.  0.
   471  4.70  0.  0.
   472  4.71  0.  0.
   473  4.72  0.  0.
   474  4.73  0.  0.
   475  4.74  0.  0.
   476  4.75  0.  0.
   477  4.76  0.  0.
   478  4.77  0.  0.
   479  4.78  0.  0.
   480  4.79  0.  0.
   481  4.80  0.  0.
   482  4.81  0.  0.
   483  4.82  0.  0.
   484  4.83  0.  0.
   485  4.84  0.  0.
   486  4.85  0.  0.
   487  4.86  0.  0.
   488  4.87  0.  0.
   489  4.88  0.  0.
   490  4.89  0.  0.
   491  4.90  0.  0.
   492  4.91  0.  0.
   493  4.92  0.  0.
   494  4.93  0.  0.
   495  4.94  0.  0.
   496  4.95  0.  0.
   497  4.96  0.  0.
   498  4.97  0.  0.
   499  4.98  0.  0.
   500  4.99  0.  0.
   501  5.00  0.  0.
   502  5.01  0.  0.
   503  5.02  0.  0.
   504  5.03  0.  0.
   505  5.04  0.  0.
   506  5.05  0.  0.
   507  5.06  0.  0.
   508  5.07  0.  0.
   509  5.08  0.  0.
   510  5.09  0.  0.
   511  5.10  0.  0.
   512  5.11  0.  0.
   513  5.12  0.  0.
   514  5.13  0.  0.
   515  5.14  0.  0.
   516  5.15  0.  0.
   517  5.16  0.  0.
   518  5.17  0.  0.
   519  5.18  0.  0.
   520  5.19  0.  0.
   521  5.20  0.  0.
   522  5.21  0.  0.
   523  5.22  0.  0.
   524  5.23  0.  0.
   525  5.24  0.  0.
   526  5.25  0.  0.
   527  5.26  0.  0.
   528  5.27  0.  0.
   529  5.28  0.  0.
   530  5.29  0.  0.
   531  5.30  0.  0.
   532  5.31  0.  0.
   533  5.32  0.  0.
   534  5.33  0.  0.
   535  5.34  0.  0.
   536  5.35  0.  0.
   537  5.36  0.  0.
   538  5.37  0.  0.
   539  5.38  0.  0.
   540  5.39  0.  0.
   541  5.40  0.  0.
   542  5.41  0.  0.
   543  5.42  0.  0.
   544  5.43  0.  0.
   545  5.44  0.  0.
   546  5.45  0.  0.
   547  5.46  0.  0.
   548  5.47  0.  0.
   549  5.48  0.  0.
   550  5.49  0.  0.
   551  5.50  0.  0.
   552  5.51  0.  0.
   553  5.52  0.  0.
   554  5.53  0.  0.
   555  5.54  0.  0.
   556  5.55  0.  0.
   557  5.56  0.  0.
   558  5.57  0.  0.
   559  5.58  0.  0.
   560  5.59  0.  0.
   561  5.60  0.  0.
   562  5.61  0.  0.
   563  5.62  0.  0.
   564  5.63  0.  0.
   565  5.64  0.  0.
   566  5.65  0.  0.
   567  5.66  0.  0.
   568  5.67  0.  0.
   569  5.68  0.  0.
   570  5.69  0.  0.
   571  5.70  0.  0.
   572  5.71  0.  0.
   573  5.72  0.  0.
   574  5.73  0.  0.
   575  5.74  0.  0.
   576  5.75  0.  0.
   577  5.76  0.  0.
   578  5.77  0.  0.
   579  5.78  0.  0.
   580  5.79  0.  0.
   581  5.80  0.  0.
   582  5.81  0.  0.
   583  5.82  0.  0.
   584  5.83  0.  0.
   585  5.84  0.  0.
   586  5.85  0.  0.
   587  5.86  0.  0.
   588  5.87  0.  0.
   589  5.88  0.  0.
   590  5.89  0.  0.
   591  5.90  0.  0.
   592  5.91  0.  0.
   593  5.92  0.  0.
   594  5.93  0.  0.
   595  5.94  0.  0.
   596  5.95  0.  0.
   597  5.96  0.  0.
   598  5.97  0.  0.
   599  5.98  0.  0.
   600  5.99  0.  0.
   1                         4.6392289051218E+00  4.8013206784908E-01
     1  0.0000000000000E+00  7.2213922341913E-11 -1.2911632180090E-10
     2  1.0000000000000E-02  9.1790581530855E-04 -5.4188710410545E-04
     3  2.0000000000000E-02  3.6691807840067E-03 -2.1651334747755E-03
     4  3.0000000000000E-02  8.2465051970515E-03 -4.8625046451915E-03
     5  4.0000000000000E-02  1.4637705242542E-02 -8.6219776269539E-03
     6  5.0000000000000E-02  2.2825791424489E-02 -1.3426792347625E-02
     7  6.0000000000000E-02  3.2789012078381E-02 -1.9255523172238E-02
     8  7.0000000000000E-02  4.4500921715907E-02 -2.6082170024427E-02
     9  8.0000000000000E-02  5.7930463858995E-02 -3.3876268493733E-02
    10  9.0000000000000E-02  7.3042067954256E-02 -4.2603018193449E-02
    11  1.0000000000000E-01  8.9795759893709E-02 -5.2223428519400E-02
    12  1.1000000000000E-01  1.0814728560662E-01 -6.2694480855348E-02
    13  1.2000000000000E-01  1.2804824713125E-01 -7.3969306176641E-02
    14  1.3000000000000E-01  1.4944625052439E-01 -8.5997376920901E-02
    15  1.4000000000000E-01  1.7228506492149E-01 -9.8724711924160E-02
    16  1.5000000000000E-01  1.9650479202089E-01 -1.1209409316306E-01
    17  1.6000000000000E-01  2.2204204523289E-01 -1.2604529299944E-01
    18  1.7000000000000E-01  2.4883013770756E-01 -1.4051531059284E-01
    19  1.8000000000000E-01  2.7679927843523E-01 -1.5543861612917E-01
    20  1.9000000000000E-01  3.0587677560001E-01 -1.7074740151044E-01
    21  2.0000000000000E-01  3.3598724635914E-01 -1.8637183615989E-01
    22  2.1000000000000E-01  3.6705283222006E-01 -2.0224032661963E-01
    23  2.2000000000000E-01  3.9899341919209E-01 -2.1827977865246E-01
    24  2.3000000000000E-01  4.3172686189996E-01 -2.3441586060598E-01
    25  2.4000000000000E-01  4.6516921086259E-01 -2.5057326685354E-01
    26  2.5000000000000E-01  4.9923494216117E-01 -2.6667598019292E-01
    27  2.6000000000000E-01  5.3383718874586E-01 -2.8264753215804E-01
    28  2.7000000000000E-01  5.6888797265960E-01 -2.9841126028038E-01
    29  2.8000000000000E-01  6.0429843748968E-01 -3.1389056142369E-01
    30  2.9000000000000E-01  6.3997908039333E-01 -3.2900914040703E-01
    31  3.0000000000000E-01  6.7583998308014E-01 -3.4369125322503E-01
    32  3.1000000000000E-01  7.1179104117360E-01 -3.5786194426927E-01
    33  3.2000000000000E-01  7.4774219141290E-01 -3.7144727704987E-01
    34  3.3000000000000E-01  7.8360363619646E-01 -3.8437455800951E-01
    35  3.4000000000000E-01  8.1928606500758E-01 -3.9657255311218E-01
    36  3.5000000000000E-01  8.5470087230153E-01 -4.0797169697456E-01
    37  3.6000000000000E-01  8.8976037146960E-01 -4.1850429438810E-01
    38  3.7000000000000E-01  9.2437800453136E-01 -4.2810471415261E-01
    39  3.8000000000000E-01  9.5846854723777E-01 -4.3670957520739E-01
    40  3.9000000000000E-01  9.9194830929823E-01 -4.4425792510248E-01
    41  4.0000000000000E-01  1.0247353294700E+00 -4.5069141089905E-01
    42  4.1000000000000E-01  1.0567495652721E+00 -4.5595444262478E-01
    43  4.2000000000000E-01  1.0879130771031E+00 -4.5999434943643E-01
    44  4.3000000000000E-01  1.1181502065608E+00 -4.6276152865670E-01
    45  4.4000000000000E-01  1.1473877487675E+00 -4.6420958785759E-01
    46  4.5000000000000E-01  1.1755551185184E+00 -4.6429548015610E-01
    47  4.6000000000000E-01  1.2025845100688E+00 -4.6297963287183E-01
    48  4.7000000000000E-01  1.2284110503791E+00 -4.6022606966984E-01
    49  4.8000000000000E-01  1.2529729456307E+00 -4.5600252627681E-01
    50  4.9000000000000E-01  1.2762116208221E+00 -4.5028055981470E-01
    51  5.0000000000000E-01  1.2980718522432E+00 -4.4303565174536E-01
    52  5.1000000000000E-01  1.3185018926134E+00 -4.3424730436204E-01
    53  5.2000000000000E-01  1.3374535886607E+00 -4.2389913070188E-01
    54  5.3000000000000E-01  1.3548824908965E+00 -4.1197893768726E-01
    55  5.4000000000000E-01  1.3707479553352E+00 -3.9847880223626E-01
    56  5.5000000000000E-01  1.3850132368820E+00 -3.8339514001358E-01
    57  5.6000000000000E-01  1.3976455741074E+00 -3.6672876642515E-01
    58  5.7000000000000E-01  1.4086162651049E+00 -3.4848494939463E-01
    59  5.8000000000000E-01  1.4179007341218E+00 -3.2867345339759E-01
    60  5.9000000000000E-01  1.4254785886410E+00 -3.0730857417349E-01
    61  6.0000000000000E-01  1.4313336665843E+00 -2.8440916348566E-01
    62  6.1000000000000E-01  1.4354540733068E+00 -2.5999864325829E-01
    63  6.2000000000000E-01  1.4378322080497E+00 -2.3410500838763E-01
    64  6.3000000000000E-01  1.4384647795262E+00 -2.0676081750317E-01
    65  6.4000000000000E-01  1.4373528103232E+00 -1.7800317094506E-01
    66  6.5000000000000E-01  1.4345016298175E+00 -1.4787367522669E-01
    67  6.6000000000000E-01  1.4299208553265E+00 -1.1641839326714E-01
    68  6.7000000000000E-01  1.4236243612358E+00 -8.3687779707944E-02
    69  6.8000000000000E-01  1.4156302358837E+00 -4.9736600671707E-02
    70  6.9000000000000E-01  1.4059607260135E+00 -1.4623837377650E-02
    71  7.0000000000000E-01  1.3946421686538E+00  2.1587426899710E-02
    72  7.1000000000000E-01  1.3817049103308E+00  5.8830136957750E-02
    73  7.2000000000000E-01  1.3671832135743E+00  9.7033413210168E-02
    74  7.3000000000000E-01  1.3511151507345E+00  1.3612271687005E-01
    75  7.4000000000000E-01  1.3335424851948E+00  1.7602003287166E-01
    76  7.5000000000000E-01  1.3145105401283E+00  2.1664407050005E-01
    77  7.6000000000000E-01  1.2940680550204E+00  2.5791048155701E-01
    78  7.7000000000000E-01  1.2722670302523E+00  2.9973209574478E-01
    79  7.8000000000000E-01  1.2491625601163E+00  3.4201917279575E-01
    80  7.9000000000000E-01  1.2248126547115E+00  3.8467967071921E-01
    81  8.0000000000000E-01  1.1992780512463E+00  4.2761952937720E-01
    82  8.1000000000000E-01  1.1726220153513E+00  4.7074296844233E-01
    83  8.2000000000000E-01  1.1449101330841E+00  5.1395279863280E-01
    84  8.3000000000000E-01  1.1162100943800E+00  5.5715074496675E-01
    85  8.4000000000000E-01  1.0865914687770E+00  6.0023778063015E-01
    86  8.5000000000000E-01  1.0561254743081E+00  6.4311446991298E-01
    87  8.6000000000000E-01  1.0248847405197E+00  6.8568131853862E-01
    88  8.7000000000000E-01  9.9294306663259E-01  7.2783912959320E-01
    89  8.8000000000000E-01  9.6037517591125E-01  7.6948936315725E-01
    90  8.9000000000000E-01  9.2725646735463E-01  8.1053449765221E-01
    91  9.0000000000000E-01  8.9366276585706E-01  8.5087839084196E-01
    92  9.1000000000000E-01  8.5967007201700E-01  8.9042663837370E-01