Br    ONCVPSP-4.0.1  r_core=   2.10032   2.10032   2.20328
     35.0000      7.0000      220723    zatom,zion,pspd
     8      11   2     4   600     0    pspcod,pspxc,lmax,lloc,mmax,r2well
  5.99000000  8.00000000  0.00000000    rchrg fchrg qchrg
     2     2     2     0     0    nproj
     1     1           extension_switch
   0                         5.5795310877677E+00  6.2947819354621E-01
     1  0.0000000000000E+00  1.1792100629293E-10 -3.3377461211570E-10
     2  1.0000000000000E-02  3.4006785171976E-02 -3.3343473433341E-03
     3  2.0000000000000E-02  6.8015219086950E-02 -6.7284047888957E-03
     4  3.0000000000000E-02  1.0202665851299E-01 -1.0241048920231E-02
     5  4.0000000000000E-02  1.3604187936499E-01 -1.3929497920509E-02
     6  5.0000000000000E-02  1.7006079398958E-01 -1.7848503879307E-02
     7  6.0000000000000E-02  2.0408217761958E-01 -2.2049570669195E-02
     8  7.0000000000000E-02  2.3810340691494E-01 -2.6580205520263E-02
     9  8.0000000000000E-02  2.7212021338921E-01 -3.1483212086983E-02
    10  9.0000000000000E-02  3.0612645437529E-01 -3.6796032390682E-02
    11  1.0000000000000E-01  3.4011390401300E-01 -4.2550144536502E-02
    12  1.1000000000000E-01  3.7407206654554E-01 -4.8770522550553E-02
    13  1.2000000000000E-01  4.0798801399392E-01 -5.5475164066662E-02
    14  1.3000000000000E-01  4.4184625003989E-01 -6.2674690918289E-02
    15  1.4000000000000E-01  4.7562860169198E-01 -7.0372026966840E-02
    16  1.5000000000000E-01  5.0931414003673E-01 -7.8562156729274E-02
    17  1.6000000000000E-01  5.4287913109259E-01 -8.7231967563503E-02
    18  1.7000000000000E-01  5.7629701748847E-01 -9.6360177337186E-02
    19  1.8000000000000E-01  6.0953843138650E-01 -1.0591734865225E-01
    20  1.9000000000000E-01  6.4257123876113E-01 -1.1586598983238E-01
    21  2.0000000000000E-01  6.7536061483817E-01 -1.2616074201191E-01
    22  2.1000000000000E-01  7.0786915019025E-01 -1.3674865080092E-01
    23  2.2000000000000E-01  7.4005698668193E-01 -1.4756952015085E-01
    24  2.3000000000000E-01  7.7188198216269E-01 -1.5855634521677E-01
    25  2.4000000000000E-01  8.0329990252038E-01 -1.6963582021362E-01
    26  2.5000000000000E-01  8.3426463943564E-01 -1.8072891650306E-01
    27  2.6000000000000E-01  8.6472845192110E-01 -1.9175152543267E-01
    28  2.7000000000000E-01  8.9464222949047E-01 -2.0261515978581E-01
    29  2.8000000000000E-01  9.2395577458508E-01 -2.1322770709723E-01
    30  2.9000000000000E-01  9.5261810168943E-01 -2.2349422755098E-01
    31  3.0000000000000E-01  9.8057775039711E-01 -2.3331778870893E-01
    32  3.1000000000000E-01  1.0077831095434E+00 -2.4260032892612E-01
    33  3.2000000000000E-01  1.0341827494041E+00 -2.5124354099594E-01
    34  3.3000000000000E-01  1.0597257588731E+00 -2.5914976733792E-01
    35  3.4000000000000E-01  1.0843620844709E+00 -2.6622289789568E-01
    36  3.5000000000000E-01  1.1080428680119E+00 -2.7236926185490E-01
    37  3.6000000000000E-01  1.1307207797576E+00 -2.7749850432042E-01
    38  3.7000000000000E-01  1.1523503439209E+00 -2.8152443920920E-01
    39  3.8000000000000E-01  1.1728882534476E+00 -2.8436586982035E-01
    40  3.9000000000000E-01  1.1922936710973E+00 -2.8594736883272E-01
    41  4.0000000000000E-01  1.2105285139718E+00 -2.8620000985290E-01
    42  4.1000000000000E-01  1.2275577187857E+00 -2.8506204308797E-01
    43  4.2000000000000E-01  1.2433494853583E+00 -2.8247950824393E-01
    44  4.3000000000000E-01  1.2578754960052E+00 -2.7840677834756E-01
    45  4.4000000000000E-01  1.2711111087363E+00 -2.7280702885141E-01
    46  4.5000000000000E-01  1.2830355224151E+00 -2.6565262710110E-01
    47  4.6000000000000E-01  1.2936319122984E+00 -2.5692543801627E-01
    48  4.7000000000000E-01  1.3028875346597E+00 -2.4661704265185E-01
    49  4.8000000000000E-01  1.3107937994949E+00 -2.3472886715907E-01
    50  4.9000000000000E-01  1.3173463106141E+00 -2.2127222054570E-01
    51  5.0000000000000E-01  1.3225448727383E+00 -2.0626824053502E-01
    52  5.1000000000000E-01  1.3263934655382E+00 -1.8974774773437E-01
    53  5.2000000000000E-01  1.3289001848714E+00 -1.7175100923655E-01
    54  5.3000000000000E-01  1.3300771517935E+00 -1.5232741368363E-01
    55  5.4000000000000E-01  1.3299403902315E+00 -1.3153506071233E-01
    56  5.5000000000000E-01  1.3285096745141E+00 -1.0944026856573E-01
    57  5.6000000000000E-01  1.3258083482487E+00 -8.6117004487351E-02
    58  5.7000000000000E-01  1.3218631163153E+00 -6.1646243304102E-02
    59  5.8000000000000E-01  1.3167038120117E+00 -3.6115260344121E-02
    60  5.9000000000000E-01  1.3103631416325E+00 -9.6168655191617E-03
    61  6.0000000000000E-01  1.3028764089845E+00  1.7751413981003E-02
    62  6.1000000000000E-01  1.2942812225431E+00  4.5888194386715E-02
    63  6.2000000000000E-01  1.2846171881282E+00  7.4689130972535E-02
    64  6.3000000000000E-01  1.2739255901218E+00  1.0404783975165E-01
    65  6.4000000000000E-01  1.2622490643686E+00  1.3385683608108E-01
    66  6.5000000000000E-01  1.2496312659858E+00  1.6400848080470E-01
    67  6.6000000000000E-01  1.2361165353604E+00  1.9439592443891E-01
    68  6.7000000000000E-01  1.2217495656381E+00  2.2491403987799E-01
    69  6.8000000000000E-01  1.2065750749938E+00  2.5546033416306E-01
    70  6.9000000000000E-01  1.1906374869312E+00  2.8593583001971E-01
    71  7.0000000000000E-01  1.1739806217825E+00  3.1624590812464E-01
    72  7.1000000000000E-01  1.1566474024730E+00  3.4630110140849E-01
    73  7.2000000000000E-01  1.1386795774728E+00  3.7601783313774E-01
    74  7.3000000000000E-01  1.1201174636934E+00  4.0531909103932E-01
    75  7.4000000000000E-01  1.1009997118854E+00  4.3413503033357E-01
    76  7.5000000000000E-01  1.0813630968744E+00  4.6240349921764E-01
    77  7.6000000000000E-01  1.0612423347200E+00  4.9007048108753E-01
    78  7.7000000000000E-01  1.0406699286161E+00  5.1709044859515E-01
    79  7.8000000000000E-01  1.0196760450584E+00  5.4342662549958E-01
    80  7.9000000000000E-01  9.9828842149963E-01  5.6905115318110E-01
    81  8.0000000000000E-01  9.7653230639267E-01  5.9394515963404E-01
    82  8.1000000000000E-01  9.5443043218905E-01  6.1809872973056E-01
    83  8.2000000000000E-01  9.3200302152285E-01  6.4151077654353E-01
    84  8.3000000000000E-01  9.0926782646540E-01  6.6418881452179E-01
    85  8.4000000000000E-01  8.8624020039237E-01  6.8614863631696E-01
    86  8.5000000000000E-01  8.6293320166270E-01  7.0741389605633E-01
    87  8.6000000000000E-01  8.3935772797277E-01  7.2801560283220E-01
    88  8.7000000000000E-01  8.1552267992200E-01  7.4799152912432E-01
    89  8.8000000000000E-01  7.9143515201179E-01  7.6738553977891E-01
    90  8.9000000000000E-01  7.6710064900063E-01  7.8624684802678E-01
    91  9.0000000000000E-01  7.4252332525813E-01  8.0462920582422E-01
    92  9.1000000000000E-01  7.1770624450218E-01  8.2259003653647E-01
    93  9.2000000000000E-01  6.9265165706915E-01  8.4018951864614E-01
    94  9.3000000000000E-01  6.6736129165984E-01  8.5748962975109E-01
    95  9.4000000000000E-01  6.4183665832533E-01  8.7455316061146E-01
    96  9.5000000000000E-01  6.1607935930979E-01  8.9144270940850E-01
    97  9.6000000000000E-01  5.9009140425289E-01  9.0821966668336E-01
    98  9.7000000000000E-01  5.6387552617367E-01  9.2494320162872E-01
    99  9.8000000000000E-01  5.3743549461316E-01  9.4166926050652E-01
   100  9.9000000000000E-01  5.1077642230327E-01  9.5844958796020E-01
   101  1.0000000000000E+00  4.8390506175686E-01  9.7533078187773E-01
   102  1.0100000000000E+00  4.5683008823712E-01  9.9235339224331E-01
   103  1.0200000000000E+00  4.2956236566417E-01  1.0095510740918E+00
   104  1.0300000000000E+00  4.0211519215103E-01  1.0269498042528E+00
   105  1.0400000000000E+00  3.7450452203086E-01  1.0445671710451E+00
   106  1.0500000000000E+00  3.4674916143918E-01  1.0624117454572E+00
   107  1.0600000000000E+00  3.1887093474792E-01  1.0804825416406E+00
   108  1.0700000000000E+00  2.9089481941141E-01  1.0987685737402E+00
   109  1.0800000000000E+00  2.6284904707338E-01  1.1172485152143E+00
   110  1.0900000000000E+00  2.3476516909836E-01  1.1358904658521E+00
   111  1.1000000000000E+00  2.0667808502622E-01  1.1546518306876E+00
   112  1.1100000000000E+00  1.7862603280239E-01  1.1734793139565E+00
   113  1.1200000000000E+00  1.5065054000560E-01  1.1923090301365E+00
   114  1.1300000000000E+00  1.2279633567516E-01  1.2110667329869E+00
   115  1.1400000000000E+00  9.5111222729433E-02  1.2296681623431E+00
   116  1.1500000000000E+00  6.7645911359401E-02  1.2480195072651E+00
   117  1.1600000000000E+00  4.0453814175997E-02  1.2660179829723E+00
   118  1.1700000000000E+00  1.3590804279670E-02  1.2835525178487E+00
   119  1.1800000000000E+00 -1.2885062195073E-02  1.3005045456763E+00
   120  1.1900000000000E+00 -3.8913857134858E-02  1.3167488971594E+00
   121  1.2000000000000E+00 -6.4434122818921E-02  1.3321547837592E+00
   122  1.2100000000000E+00 -8.9383242982245E-02  1.3465868658622E+00
   123  1.2200000000000E+00 -1.1369783962833E-01  1.3599063963852E+00
   124  1.2300000000000E+00 -1.3731419235398E-01  1.3719724300627E+00
   125  1.2400000000000E+00 -1.6016867668343E-01  1.3826430879034E+00
   126  1.2500000000000E+00 -1.8219821767320E-01  1.3917768656222E+00
   127  1.2600000000000E+00 -2.0334075484616E-01  1.3992339742830E+00
   128  1.2700000000000E+00 -2.2353571434719E-01  1.4048777009176E+00
   129  1.2800000000000E+00 -2.4272448408242E-01  1.4085757765293E+00
   130  1.2900000000000E+00 -2.6085088751321E-01  1.4102017386469E+00
   131  1.3000000000000E+00 -2.7786165172605E-01  1.4096362754751E+00
   132  1.3100000000000E+00 -2.9370686538862E-01  1.4067685386833E+00
   133  1.3200000000000E+00 -3.0834042223515E-01  1.4014974119995E+00
   134  1.3300000000000E+00 -3.2172044579620E-01  1.3937327230170E+00
   135  1.3400000000000E+00 -3.3380969120270E-01  1.3833963859904E+00
   136  1.3500000000000E+00 -3.4457592004862E-01  1.3704234638776E+00
   137  1.3600000000000E+00 -3.5399224449043E-01  1.3547631384891E+00
   138  1.3700000000000E+00 -3.6203743699304E-01  1.3363795783112E+00
   139  1.3800000000000E+00 -3.6869620239905E-01  1.3152526943872E+00
   140  1.3900000000000E+00 -3.7395940930021E-01  1.2913787755549E+00
   141  1.4000000000000E+00 -3.7782427802111E-01  1.2647709953409E+00
   142  1.4100000000000E+00 -3.8029452288690E-01  1.2354597838990E+00
   143  1.4200000000000E+00 -3.8138044683016E-01  1.2034930595341E+00
   144  1.4300000000000E+00 -3.8109898680186E-01  1.1689363155774E+00
   145  1.4400000000000E+00 -3.7947370887457E-01  1.1318725596464E+00
   146  1.4500000000000E+00 -3.7653475236593E-01  1.0924021036333E+00
   147  1.4600000000000E+00 -3.7231872276001E-01  1.0506422041030E+00
   148  1.4700000000000E+00 -3.6686853365911E-01  1.0067265541351E+00
   149  1.4800000000000E+00 -3.6023319845553E-01  9.6080462899921E-01
   150  1.4900000000000E+00 -3.5246757286859E-01  9.1304088939814E-01
   151  1.5000000000000E+00 -3.4363204993901E-01  8.6361384733904E-01
   152  1.5100000000000E+00 -3.3379220951025E-01  8.1271500097699E-01
   153  1.5200000000000E+00 -3.2301842464839E-01  7.6054764601910E-01
   154  1.5300000000000E+00 -3.1138542785472E-01  7.0732557245804E-01
   155  1.5400000000000E+00 -2.9897184030534E-01  6.5327165651559E-01
   156  1.5500000000000E+00 -2.8585966770506E-01  5.9861635870648E-01
   157  1.5600000000000E+00 -2.7213376666572E-01  5.4359613987112E-01
   158  1.5700000000000E+00 -2.5788128580968E-01  4.8845180786552E-01
   159  1.5800000000000E+00 -2.4319108605210E-01  4.3342680832393E-01
   160  1.5900000000000E+00 -2.2815314473099E-01  3.7876547352291E-01
   161  1.6000000000000E+00 -2.1285794842784E-01  3.2471124386513E-01
   162  1.6100000000000E+00 -1.9739587945329E-01  2.7150487686269E-01
   163  1.6200000000000E+00 -1.8185660105896E-01  2.1938265872887E-01
   164  1.6300000000000E+00 -1.6632844647879E-01  1.6857463378126E-01
   165  1.6400000000000E+00 -1.5089781689916E-01  1.1930286681698E-01
   166  1.6500000000000E+00 -1.3564859340712E-01  7.1779753440415E-02
   167  1.6600000000000E+00 -1.2066156787026E-01  2.6206393008497E-02
   168  1.6700000000000E+00 -1.0601389756097E-01 -1.7228961591634E-02
   169  1.6800000000000E+00 -9.1778588153023E-02 -5.8352363697954E-02
   170  1.6900000000000E+00 -7.8024009490985E-02 -9.7005529233495E-02
   171  1.7000000000000E+00 -6.4813448265045E-02 -1.3304707756873E-01
   172  1.7100000000000E+00 -5.2204701417847E-02 -1.6635364572322E-01
   173  1.7200000000000E+00 -4.0249713767982E-02 -1.9682086578715E-01
   174  1.7300000000000E+00 -2.8994262960560E-02 -2.2436419658294E-01
   175  1.7400000000000E+00 -1.8477694451688E-02 -2.4891960181235E-01
   176  1.7500000000000E+00 -8.7327088044842E-03 -2.7044406823412E-01
   177  1.7600000000000E+00  2.1479687672946E-04 -2.8891595878057E-01
   178  1.7700000000000E+00  8.3458320160426E-03 -3.0433519693518E-01
   179  1.7800000000000E+00  1.5648359263502E-02 -3.1672328014547E-01
   180  1.7900000000000E+00  2.2117284435809E-02 -3.2612312152235E-01
   181  1.8000000000000E+00  2.7754389811105E-02 -3.3259872056591E-01
   182  1.8100000000000E+00  3.2568211404022E-02 -3.3623466524267E-01
   183  1.8200000000000E+00  3.6573861236180E-02 -3.3713546869104E-01
   184  1.8300000000000E+00  3.9792796248754E-02 -3.3542474605841E-01
   185  1.8400000000000E+00  4.2252535510547E-02 -3.3124423595386E-01
   186  1.8500000000000E+00  4.3986324082790E-02 -3.2475265357959E-01
   187  1.8600000000000E+00  4.5032599214544E-02 -3.1612364723316E-01
   188  1.8700000000000E+00  4.5434384215411E-02 -3.0554350820176E-01
   189  1.8800000000000E+00  4.5238775296510E-02 -2.9320944719290E-01
   190  1.8900000000000E+00  4.4496442397060E-02 -2.7932801377810E-01
   191  1.9000000000000E+00  4.3261092744374E-02 -2.6411338754986E-01
   192  1.9100000000000E+00  4.1588912672124E-02 -2.4778561113035E-01
   193  1.9200000000000E+00  3.9537990834639E-02 -2.3056877080586E-01
   194  1.9300000000000E+00  3.7167727790471E-02 -2.1268913976501E-01
   195  1.9400000000000E+00  3.4538237174935E-02 -1.9437329987379E-01
   196  1.9500000000000E+00  3.1709743734418E-02 -1.7584625800362E-01
   197  1.9600000000000E+00  2.8741989880190E-02 -1.5732959056502E-01
   198  1.9700000000000E+00  2.5693596160477E-02 -1.3903946683777E-01
   199  1.9800000000000E+00  2.2621613896382E-02 -1.2118520987792E-01
   200  1.9900000000000E+00  1.9580791816388E-02 -1.0396707895853E-01
   201  2.0000000000000E+00  1.6621517241440E-02 -8.7570395249359E-02
   202  2.0100000000000E+00  1.3785244413027E-02 -7.2152702944979E-02
   203  2.0200000000000E+00  1.1117414408571E-02 -5.7879319052385E-02
   204  2.0300000000000E+00  8.6625752210945E-03 -4.4909749416606E-02
   205  2.0400000000000E+00  6.4594955401665E-03 -3.3384070842387E-02
   206  2.0500000000000E+00  4.5417686582916E-03 -2.3424469709421E-02
   207  2.0600000000000E+00  2.9373366300017E-03 -1.5133823044881E-02
   208  2.0700000000000E+00  1.6688610823330E-03 -8.5982091474607E-03
   209  2.0800000000000E+00  7.4690516927195E-04 -3.8518909594697E-03
   210  2.0900000000000E+00  1.9836323906896E-04 -1.0251734781711E-03
   211  2.1000000000000E+00  2.1019372695120E-06 -1.1036986323201E-05
   212  2.1100000000000E+00 -6.9424568669067E-06  3.5957642789757E-05
   213  2.1200000000000E+00  4.0326976892407E-06 -2.0845012986191E-05
   214  2.1300 -0.  0.
   215  2.1400  0. -0.
   216  2.1500  0. -0.
   217  2.1600  0.  0.
   218  2.1700  0.  0.
   219  2.1800  0.  0.
   220  2.1900  0.  0.
   221  2.2000  0.  0.
   222  2.2100  0.  0.
   223  2.2200  0.  0.
   224  2.2300  0.  0.
   225  2.2400  0.  0.
   226  2.2500  0.  0.
   227  2.2600  0.  0.
   228  2.2700  0.  0.
   229  2.2800  0.  0.
   230  2.2900  0.  0.
   231  2.3000  0.  0.
   232  2.3100  0.  0.
   233  2.3200  0.  0.
   234  2.3300  0.  0.
   235  2.3400  0.  0.
   236  2.3500  0.  0.
   237  2.3600  0.  0.
   238  2.3700  0.  0.
   239  2.3800  0.  0.
   240  2.3900  0.  0.
   241  2.4000  0.  0.
   242  2.4100  0.  0.
   243  2.4200  0.  0.
   244  2.4300  0.  0.
   245  2.4400  0.  0.
   246  2.4500  0.  0.
   247  2.4600  0.  0.
   248  2.4700  0.  0.
   249  2.4800  0.  0.
   250  2.4900  0.  0.
   251  2.5000  0.  0.
   252  2.5100  0.  0.
   253  2.5200  0.  0.
   254  2.5300  0.  0.
   255  2.5400  0.  0.
   256  2.5500  0.  0.
   257  2.5600  0.  0.
   258  2.5700  0.  0.
   259  2.5800  0.  0.
   260  2.5900  0.  0.
   261  2.6000  0.  0.
   262  2.6100  0.  0.
   263  2.6200  0.  0.
   264  2.6300  0.  0.
   265  2.6400  0.  0.
   266  2.6500  0.  0.
   267  2.6600  0.  0.
   268  2.6700  0.  0.
   269  2.6800  0.  0.
   270  2.6900  0.  0.
   271  2.7000  0.  0.
   272  2.7100  0.  0.
   273  2.7200  0.  0.
   274  2.7300  0.  0.
   275  2.7400  0.  0.
   276  2.7500  0.  0.
   277  2.7600  0.  0.
   278  2.7700  0.  0.
   279  2.7800  0.  0.
   280  2.7900  0.  0.
   281  2.8000  0.  0.
   282  2.8100  0.  0.
   283  2.8200  0.  0.
   284  2.8300  0.  0.
   285  2.8400  0.  0.
   286  2.8500  0.  0.
   287  2.8600  0.  0.
   288  2.8700  0.  0.
   289  2.8800  0.  0.
   290  2.8900  0.  0.
   291  2.9000  0.  0.
   292  2.9100  0.  0.
   293  2.9200  0.  0.
   294  2.9300  0.  0.
   295  2.9400  0.  0.
   296  2.9500  0.  0.
   297  2.9600  0.  0.
   298  2.9700  0.  0.
   299  2.9800  0.  0.
   300  2.9900  0.  0.
   301  3.0000  0.  0.
   302  3.0100  0.  0.
   303  3.0200  0.  0.
   304  3.0300  0.  0.
   305  3.0400  0.  0.
   306  3.0500  0.  0.
   307  3.0600  0.  0.
   308  3.0700  0.  0.
   309  3.0800  0.  0.
   310  3.0900  0.  0.
   311  3.1000  0.  0.
   312  3.1100  0.  0.
   313  3.1200  0.  0.
   314  3.1300  0.  0.
   315  3.1400  0.  0.
   316  3.1500  0.  0.
   317  3.1600  0.  0.
   318  3.1700  0.  0.
   319  3.1800  0.  0.
   320  3.1900  0.  0.
   321  3.2000  0.  0.
   322  3.2100  0.  0.
   323  3.2200  0.  0.
   324  3.2300  0.  0.
   325  3.2400  0.  0.
   326  3.2500  0.  0.
   327  3.2600  0.  0.
   328  3.2700  0.  0.
   329  3.2800  0.  0.
   330  3.2900  0.  0.
   331  3.3000  0.  0.
   332  3.3100  0.  0.
   333  3.3200  0.  0.
   334  3.3300  0.  0.
   335  3.3400  0.  0.
   336  3.3500  0.  0.
   337  3.3600  0.  0.
   338  3.3700  0.  0.
   339  3.3800  0.  0.
   340  3.3900  0.  0.
   341  3.4000  0.  0.
   342  3.4100  0.  0.
   343  3.4200  0.  0.
   344  3.4300  0.  0.
   345  3.4400  0.  0.
   346  3.4500  0.  0.
   347  3.4600  0.  0.
   348  3.4700  0.  0.
   349  3.4800  0.  0.
   350  3.4900  0.  0.
   351  3.5000  0.  0.
   352  3.5100  0.  0.
   353  3.5200  0.  0.
   354  3.5300  0.  0.
   355  3.5400  0.  0.
   356  3.5500  0.  0.
   357  3.5600  0.  0.
   358  3.5700  0.  0.
   359  3.5800  0.  0.
   360  3.5900  0.  0.
   361  3.6000  0.  0.
   362  3.6100  0.  0.
   363  3.6200  0.  0.
   364  3.6300  0.  0.
   365  3.6400  0.  0.
   366  3.6500  0.  0.
   367  3.6600  0.  0.
   368  3.6700  0.  0.
   369  3.6800  0.  0.
   370  3.6900  0.  0.
   371  3.7000  0.  0.
   372  3.7100  0.  0.
   373  3.7200  0.  0.
   374  3.7300  0.  0.
   375  3.7400  0.  0.
   376  3.7500  0.  0.
   377  3.7600  0.  0.
   378  3.7700  0.  0.
   379  3.7800  0.  0.
   380  3.7900  0.  0.
   381  3.8000  0.  0.
   382  3.8100  0.  0.
   383  3.8200  0.  0.
   384  3.8300  0.  0.
   385  3.8400  0.  0.
   386  3.8500  0.  0.
   387  3.8600  0.  0.
   388  3.8700  0.  0.
   389  3.8800  0.  0.
   390  3.8900  0.  0.
   391  3.9000  0.  0.
   392  3.9100  0.  0.
   393  3.9200  0.  0.
   394  3.9300  0.  0.
   395  3.9400  0.  0.
   396  3.9500  0.  0.
   397  3.9600  0.  0.
   398  3.9700  0.  0.
   399  3.9800  0.  0.
   400  3.9900  0.  0.
   401  4.0000  0.  0.
   402  4.0100  0.  0.
   403  4.0200  0.  0.
   404  4.0300  0.  0.
   405  4.0400  0.  0.
   406  4.0500  0.  0.
   407  4.0600  0.  0.
   408  4.0700  0.  0.
   409  4.0800  0.  0.
   410  4.0900  0.  0.
   411  4.1000  0.  0.
   412  4.1100  0.  0.
   413  4.1200  0.  0.
   414  4.1300  0.  0.
   415  4.1400  0.  0.
   416  4.1500  0.  0.
   417  4.1600  0.  0.
   418  4.1700  0.  0.
   419  4.1800  0.  0.
   420  4.1900  0.  0.
   421  4.2000  0.  0.
   422  4.2100  0.  0.
   423  4.2200  0.  0.
   424  4.2300  0.  0.
   425  4.2400  0.  0.
   426  4.2500  0.  0.
   427  4.2600  0.  0.
   428  4.2700  0.  0.
   429  4.2800  0.  0.
   430  4.2900  0.  0.
   431  4.3000  0.  0.
   432  4.3100  0.  0.
   433  4.3200  0.  0.
   434  4.3300  0.  0.
   435  4.3400  0.  0.
   436  4.3500  0.  0.
   437  4.3600  0.  0.
   438  4.3700  0.  0.
   439  4.3800  0.  0.
   440  4.3900  0.  0.
   441  4.4000  0.  0.
   442  4.4100  0.  0.
   443  4.4200  0.  0.
   444  4.4300  0.  0.
   445  4.4400  0.  0.
   446  4.4500  0.  0.
   447  4.4600  0.  0.
   448  4.4700  0.  0.
   449  4.4800  0.  0.
   450  4.4900  0.  0.
   451  4.5000  0.  0.
   452  4.5100  0.  0.
   453  4.5200  0.  0.
   454  4.5300  0.  0.
   455  4.5400  0.  0.
   456  4.5500  0.  0.
   457  4.5600  0.  0.
   458  4.5700  0.  0.
   459  4.5800  0.  0.
   460  4.5900  0.  0.
   461  4.6000  0.  0.
   462  4.6100  0.  0.
   463  4.6200  0.  0.
   464  4.6300  0.  0.
   465  4.6400  0.  0.
   466  4.6500  0.  0.
   467  4.6600  0.  0.
   468  4.6700  0.  0.
   469  4.6800  0.  0.
   470  4.6900  0.  0.
   471  4.7000  0.  0.
   472  4.7100  0.  0.
   473  4.7200  0.  0.
   474  4.7300  0.  0.
   475  4.7400  0.  0.
   476  4.7500  0.  0.
   477  4.7600  0.  0.
   478  4.7700  0.  0.
   479  4.7800  0.  0.
   480  4.7900  0.  0.
   481  4.8000  0.  0.
   482  4.8100  0.  0.
   483  4.8200  0.  0.
   484  4.8300  0.  0.
   485  4.8400  0.  0.
   486  4.8500  0.  0.
   487  4.8600  0.  0.
   488  4.8700  0.  0.
   489  4.8800  0.  0.
   490  4.8900  0.  0.
   491  4.9000  0.  0.
   492  4.9100  0.  0.
   493  4.9200  0.  0.
   494  4.9300  0.  0.
   495  4.9400  0.  0.
   496  4.9500  0.  0.
   497  4.9600  0.  0.
   498  4.9700  0.  0.
   499  4.9800  0.  0.
   500  4.9900  0.  0.
   501  5.0000  0.  0.
   502  5.0100  0.  0.
   503  5.0200  0.  0.
   504  5.0300  0.  0.
   505  5.0400  0.  0.
   506  5.0500  0.  0.
   507  5.0600  0.  0.
   508  5.0700  0.  0.
   509  5.0800  0.  0.
   510  5.0900  0.  0.
   511  5.1000  0.  0.
   512  5.1100  0.  0.
   513  5.1200  0.  0.
   514  5.1300  0.  0.
   515  5.1400  0.  0.
   516  5.1500  0.  0.
   517  5.1600  0.  0.
   518  5.1700  0.  0.
   519  5.1800  0.  0.
   520  5.1900  0.  0.
   521  5.2000  0.  0.
   522  5.2100  0.  0.
   523  5.2200  0.  0.
   524  5.2300  0.  0.
   525  5.2400  0.  0.
   526  5.2500  0.  0.
   527  5.2600  0.  0.
   528  5.2700  0.  0.
   529  5.2800  0.  0.
   530  5.2900  0.  0.
   531  5.3000  0.  0.
   532  5.3100  0.  0.
   533  5.3200  0.  0.
   534  5.3300  0.  0.
   535  5.3400  0.  0.
   536  5.3500  0.  0.
   537  5.3600  0.  0.
   538  5.3700  0.  0.
   539  5.3800  0.  0.
   540  5.3900  0.  0.
   541  5.4000  0.  0.
   542  5.4100  0.  0.
   543  5.4200  0.  0.
   544  5.4300  0.  0.
   545  5.4400  0.  0.
   546  5.4500  0.  0.
   547  5.4600  0.  0.
   548  5.4700  0.  0.
   549  5.4800  0.  0.
   550  5.4900  0.  0.
   551  5.5000  0.  0.
   552  5.5100  0.  0.
   553  5.5200  0.  0.
   554  5.5300  0.  0.
   555  5.5400  0.  0.
   556  5.5500  0.  0.
   557  5.5600  0.  0.
   558  5.5700  0.  0.
   559  5.5800  0.  0.
   560  5.5900  0.  0.
   561  5.6000  0.  0.
   562  5.6100  0.  0.
   563  5.6200  0.  0.
   564  5.6300  0.  0.
   565  5.6400  0.  0.
   566  5.6500  0.  0.
   567  5.6600  0.  0.
   568  5.6700  0.  0.
   569  5.6800  0.  0.
   570  5.6900  0.  0.
   571  5.7000  0.  0.
   572  5.7100  0.  0.
   573  5.7200  0.  0.
   574  5.7300  0.  0.
   575  5.7400  0.  0.
   576  5.7500  0.  0.
   577  5.7600  0.  0.
   578  5.7700  0.  0.
   579  5.7800  0.  0.
   580  5.7900  0.  0.
   581  5.8000  0.  0.
   582  5.8100  0.  0.
   583  5.8200  0.  0.
   584  5.8300  0.  0.
   585  5.8400  0.  0.
   586  5.8500  0.  0.
   587  5.8600  0.  0.
   588  5.8700  0.  0.
   589  5.8800  0.  0.
   590  5.8900  0.  0.
   591  5.9000  0.  0.
   592  5.9100  0.  0.
   593  5.9200  0.  0.
   594  5.9300  0.  0.
   595  5.9400  0.  0.
   596  5.9500  0.  0.
   597  5.9600  0.  0.
   598  5.9700  0.  0.
   599  5.9800  0.  0.
   600  5.9900  0.  0.
   1                         3.1995330104354E+00  5.2243692652552E-01
     1  0.0000000000000E+00 -7.9830353091892E-10  1.3654687484876E-09
     2  1.0000000000000E-02  4.5098962227615E-04  8.2759740979871E-05
     3  2.0000000000000E-02  1.8056733758578E-03  3.2711551277932E-04
     4  3.0000000000000E-02  4.0691609153956E-03  7.2135710136625E-04
     5  4.0000000000000E-02  7.2498520858835E-03  1.2461671956203E-03
     6  5.0000000000000E-02  1.1359264085783E-02  1.8749183315046E-03
     7  6.0000000000000E-02  1.6411792541719E-02  2.5740833970459E-03
     8  7.0000000000000E-02  2.2424409498587E-02  3.3037545549897E-03
     9  8.0000000000000E-02  2.9416302127226E-02  4.0182640745266E-03
    10  9.0000000000000E-02  3.7408456705813E-02  4.6668992749161E-03
    11  1.0000000000000E-01  4.6423193132462E-02  5.1947025865938E-03
    12  1.1000000000000E-01  5.6483655866571E-02  5.5433466443893E-03
    13  1.2000000000000E-01  6.7613267768104E-02  5.6520733551205E-03
    14  1.3000000000000E-01  7.9835153800244E-02  5.4586850401005E-03
    15  1.4000000000000E-01  9.3171541975969E-02  4.9005750518773E-03
    16  1.5000000000000E-01  1.0764314925803E-01  3.9157847126179E-03
    17  1.6000000000000E-01  1.2326856036064E-01  2.4440730252792E-03
    18  1.7000000000000E-01  1.4006360754688E-01  4.2798537384770E-04
    19  1.8000000000000E-01  1.5804075956641E-01 -2.1860926421816E-03
    20  1.9000000000000E-01  1.7720852783296E-01 -5.4469099991825E-03
    21  2.0000000000000E-01  1.9757089780001E-01 -9.3973671673338E-03
    22  2.1000000000000E-01  2.1912679325802E-01 -1.4073588233867E-02
    23  2.2000000000000E-01  2.4186958094931E-01 -1.9504060730526E-02
    24  2.3000000000000E-01  2.6578662248120E-01 -2.5708854932273E-02
    25  2.4000000000000E-01  2.9085888001834E-01 -3.2698933518819E-02
    26  2.5000000000000E-01  3.1706058165701E-01 -4.0475561480489E-02
    27  2.6000000000000E-01  3.4435895173381E-01 -4.9029825017298E-02
    28  2.7000000000000E-01  3.7271401060578E-01 -5.8342266936786E-02
    29  2.8000000000000E-01  4.0207844766617E-01 -6.8382644716696E-02
    30  2.9000000000000E-01  4.3239757053950E-01 -7.9109815977952E-02
    31  3.0000000000000E-01  4.6360933253877E-01 -9.0471754627484E-02
    32  3.1000000000000E-01  4.9564443957799E-01 -1.0240569939682E-01
    33  3.2000000000000E-01  5.2842653682349E-01 -1.1483843493785E-01
    34  3.3000000000000E-01  5.6187247444893E-01 -1.2768670406034E-01
    35  3.4000000000000E-01  5.9589265094072E-01 -1.4085774812481E-01
    36  3.5000000000000E-01  6.3039143149530E-01 -1.5424997105698E-01
    37  3.6000000000000E-01  6.6526763816511E-01 -1.6775372094501E-01
    38  3.7000000000000E-01  7.0041510755869E-01 -1.8125218173532E-01
    39  3.8000000000000E-01  7.3572331109068E-01 -1.9462236617418E-01
    40  3.9000000000000E-01  7.7107803201921E-01 -2.0773619986650E-01
    41  4.0000000000000E-01  8.0636209281069E-01 -2.2046168515629E-01
    42  4.1000000000000E-01  8.4145612574280E-01 -2.3266413248826E-01
    43  4.2000000000000E-01  8.7623937910379E-01 -2.4420744600107E-01
    44  4.3000000000000E-01  9.1059055087621E-01 -2.5495544933963E-01
    45  4.4000000000000E-01  9.4438864141192E-01 -2.6477323706805E-01
    46  4.5000000000000E-01  9.7751381631772E-01 -2.7352853662284E-01
    47  4.6000000000000E-01  1.0098482705801E+00 -2.8109306547495E-01
    48  4.7000000000000E-01  1.0412770848676E+00 -2.8734386807310E-01
    49  4.8000000000000E-01  1.0716890649608E+00 -2.9216461722196E-01
    50  4.9000000000000E-01  1.1009775553718E+00 -2.9544686480719E-01
    51  5.0000000000000E-01  1.1290412184326E+00 -2.9709122721419E-01
    52  5.1000000000000E-01  1.1557847704428E+00 -2.9700849139370E-01
    53  5.2000000000000E-01  1.1811196668816E+00 -2.9512062830068E-01
    54  5.3000000000000E-01  1.2049647291893E+00 -2.9136170136462E-01
    55  5.4000000000000E-01  1.2272467062185E+00 -2.8567865873073E-01
    56  5.5000000000000E-01  1.2479007641236E+00 -2.7803199923061E-01
    57  5.6000000000000E-01  1.2668708992081E+00 -2.6839630338550E-01
    58  5.7000000000000E-01  1.2841102690595E+00 -2.5676062220041E-01
    59  5.8000000000000E-01  1.2995814381745E+00 -2.4312871805775E-01
    60  5.9000000000000E-01  1.3132565351937E+00 -2.2751915364733E-01
    61  6.0000000000000E-01  1.3251173198270E+00 -2.0996522655831E-01
    62  6.1000000000000E-01  1.3351551585283E+00 -1.9051474888833E-01
    63  6.2000000000000E-01  1.3433709089885E+00 -1.6922967297717E-01
    64  6.3000000000000E-01  1.3497747145147E+00 -1.4618556612651E-01
    65  6.4000000000000E-01  1.3543857103712E+00 -1.2147093890371E-01
    66  6.5000000000000E-01  1.3572316451380E+00 -9.5186433326922E-02
    67  6.6000000000000E-01  1.3583484211020E+00 -6.7443878870430E-02
    68  6.7000000000000E-01  1.3577795586112E+00 -3.8365225795066E-02
    69  6.8000000000000E-01  1.3555755901901E+00 -8.0813667795822E-03
    70  6.9000000000000E-01  1.3517933910239E+00  2.3269140812153E-02
    71  7.0000000000000E-01  1.3464954531560E+00  5.5541438462519E-02
    72  7.1000000000000E-01  1.3397491114040E+00  8.8585801177219E-02
    73  7.2000000000000E-01  1.3316257295771E+00  1.2224912772503E-01
    74  7.3000000000000E-01  1.3221998560568E+00  1.5637647009539E-01
    75  7.4000000000000E-01  1.3115483581861E+00  1.9081258524634E-01
    76  7.5000000000000E-01  1.2997495451957E+00  2.2540349181967E-01
    77  7.6000000000000E-01  1.2868822895611E+00  2.5999801429682E-01
    78  7.7000000000000E-01  1.2730251567520E+00  2.9444929706363E-01
    79  7.8000000000000E-01  1.2582555532791E+00  3.2861627104448E-01
    80  7.9000000000000E-01  1.2426489027857E+00  3.6236505595755E-01
    81  8.0000000000000E-01  1.2262778596554E+00  3.9557028182935E-01