Kr    ONCVPSP-4.0.1  r_core=   2.10398   1.70652   2.30150
     36.0000      8.0000      210716    zatom,zion,pspd
     8      11   2     4   600     0    pspcod,pspxc,lmax,lloc,mmax,r2well
  5.99000000  7.00000000  0.00000000    rchrg fchrg qchrg
     2     2     2     0     0    nproj
     1     1           extension_switch
   0                         7.2865182010989E+00  9.1184209453007E-01
     1  0.0000000000000E+00  3.2367331037619E-11 -8.4784179676944E-11
     2  1.0000000000000E-02  3.8466485673748E-02 -1.5798439006801E-02
     3  2.0000000000000E-02  7.6912671179656E-02 -3.1586137775562E-02
     4  3.0000000000000E-02  1.1531816140406E-01 -4.7352130503105E-02
     5  4.0000000000000E-02  1.5366237233963E-01 -6.3085002691902E-02
     6  5.0000000000000E-02  1.9192443912517E-01 -7.8772672871048E-02
     7  6.0000000000000E-02  2.3008312704637E-01 -9.4402181538559E-02
     8  7.0000000000000E-02  2.6811674644617E-01 -1.0995948963192E-01
     9  8.0000000000000E-02  3.0600307246122E-01 -1.2542928874900E-01
    10  9.0000000000000E-02  3.4371927046071E-01 -1.4079482523699E-01
    11  1.0000000000000E-01  3.8124182801690E-01 -1.5603774014324E-01
    12  1.1000000000000E-01  4.1854649418237E-01 -1.7113792688096E-01
    13  1.2000000000000E-01  4.5560822678868E-01 -1.8607340830437E-01
    14  1.3000000000000E-01  4.9240114841460E-01 -2.0082023471488E-01
    15  1.4000000000000E-01  5.2889851160031E-01 -2.1535240413286E-01
    16  1.5000000000000E-01  5.6507267380733E-01 -2.2964180597032E-01
    17  1.6000000000000E-01  6.0089508254342E-01 -2.4365818903048E-01
    18  1.7000000000000E-01  6.3633627098715E-01 -2.5736915454175E-01
    19  1.8000000000000E-01  6.7136586436022E-01 -2.7074017470898E-01
    20  1.9000000000000E-01  7.0595259720625E-01 -2.8373463703530E-01
    21  2.0000000000000E-01  7.4006434164465E-01 -2.9631391443520E-01
    22  2.1000000000000E-01  7.7366814657697E-01 -3.0843746092670E-01
    23  2.2000000000000E-01  8.0673028773265E-01 -3.2006293245859E-01
    24  2.3000000000000E-01  8.3921632835096E-01 -3.3114633220018E-01
    25  2.4000000000000E-01  8.7109119020797E-01 -3.4164217939814E-01
    26  2.5000000000000E-01  9.0231923461146E-01 -3.5150370068904E-01
    27  2.6000000000000E-01  9.3286435290411E-01 -3.6068304254971E-01
    28  2.7000000000000E-01  9.6269006593643E-01 -3.6913150337207E-01
    29  2.8000000000000E-01  9.9175963189639E-01 -3.7679978346626E-01
    30  2.9000000000000E-01  1.0200361618135E+00 -3.8363825112762E-01
    31  3.0000000000000E-01  1.0474827419914E+00 -3.8959722275045E-01
    32  3.1000000000000E-01  1.0740625625645E+00 -3.9462725483657E-01
    33  3.2000000000000E-01  1.0997390513257E+00 -3.9867944562979E-01
    34  3.3000000000000E-01  1.1244760119250E+00 -4.0170574401021E-01
    35  3.4000000000000E-01  1.1482377655046E+00 -4.0365926320568E-01
    36  3.5000000000000E-01  1.1709892948073E+00 -4.0449459682213E-01
    37  3.6000000000000E-01  1.1926963897723E+00 -4.0416813466040E-01
    38  3.7000000000000E-01  1.2133257936208E+00 -4.0263837577537E-01
    39  3.8000000000000E-01  1.2328453484304E+00 -3.9986623624343E-01
    40  3.9000000000000E-01  1.2512241391979E+00 -3.9581534913640E-01
    41  4.0000000000000E-01  1.2684326354025E+00 -3.9045235425430E-01
    42  4.1000000000000E-01  1.2844428291047E+00 -3.8374717524454E-01
    43  4.2000000000000E-01  1.2992283686360E+00 -3.7567328183157E-01
    44  4.3000000000000E-01  1.3127646869774E+00 -3.6620793499665E-01
    45  4.4000000000000E-01  1.3250291239613E+00 -3.5533241308274E-01
    46  4.5000000000000E-01  1.3360010414817E+00 -3.4303221695155E-01
    47  4.6000000000000E-01  1.3456619309547E+00 -3.2929725248918E-01
    48  4.7000000000000E-01  1.3539955123292E+00 -3.1412198894005E-01
    49  4.8000000000000E-01  1.3609878240165E+00 -2.9750559174596E-01
    50  4.9000000000000E-01  1.3666273031772E+00 -2.7945202877527E-01
    51  5.0000000000000E-01  1.3709048558799E+00 -2.5997014904490E-01
    52  5.1000000000000E-01  1.3738139167231E+00 -2.3907373326350E-01
    53  5.2000000000000E-01  1.3753504975946E+00 -2.1678151575457E-01
    54  5.3000000000000E-01  1.3755132253236E+00 -1.9311717755300E-01
    55  5.4000000000000E-01  1.3743033680674E+00 -1.6810931070370E-01
    56  5.5000000000000E-01  1.3717248503561E+00 -1.4179135402589E-01
    57  5.6000000000000E-01  1.3677842568050E+00 -1.1420150083825E-01
    58  5.7000000000000E-01  1.3624908245875E+00 -8.5382579366229E-02
    59  5.8000000000000E-01  1.3558564248401E+00 -5.5381906772647E-02
    60  5.9000000000000E-01  1.3478955332535E+00 -2.4251117962098E-02
    61  6.0000000000000E-01  1.3386251901750E+00  7.9540294913006E-03
    62  6.1000000000000E-01  1.3280649506222E+00  4.1173872757684E-02
    63  6.2000000000000E-01  1.3162368246725E+00  7.5345081800629E-02
    64  6.3000000000000E-01  1.3031652087557E+00  1.1040091620122E-01
    65  6.4000000000000E-01  1.2888768084328E+00  1.4627149875958E-01
    66  6.5000000000000E-01  1.2734005532937E+00  1.8288410375870E-01
    67  6.6000000000000E-01  1.2567675046490E+00  2.2016345767789E-01
    68  6.7000000000000E-01  1.2390107567302E+00  2.5803205006648E-01
    69  6.8000000000000E-01  1.2201653321372E+00  2.9641045223367E-01
    70  6.9000000000000E-01  1.2002680722986E+00  3.3521764137740E-01
    71  7.0000000000000E-01  1.1793575237209E+00  3.7437132776525E-01
    72  7.1000000000000E-01  1.1574738208108E+00  4.1378828259221E-01
    73  7.2000000000000E-01  1.1346585660543E+00  4.5338466417482E-01
    74  7.3000000000000E-01  1.1109547083266E+00  4.9307634019780E-01
    75  7.4000000000000E-01  1.0864064200922E+00  5.3277920380638E-01
    76  7.5000000000000E-01  1.0610589742313E+00  5.7240948143637E-01
    77  7.6000000000000E-01  1.0349586211984E+00  6.1188403039098E-01
    78  7.7000000000000E-01  1.0081524671861E+00  6.5112062430940E-01
    79  7.8000000000000E-01  9.8068835392041E-01  6.9003822482446E-01
    80  7.9000000000000E-01  9.5261474067111E-01  7.2855723787420E-01
    81  8.0000000000000E-01  9.2398058900724E-01  7.6659975331334E-01
    82  8.1000000000000E-01  8.9483525077062E-01  8.0408976666266E-01
    83  8.2000000000000E-01  8.6522835968210E-01  8.4095338203676E-01
    84  8.3000000000000E-01  8.3520972693201E-01  8.7711899549908E-01
    85  8.4000000000000E-01  8.0482924104165E-01  9.1251745830824E-01
    86  8.5000000000000E-01  7.7413677221676E-01  9.4708221973619E-01
    87  8.6000000000000E-01  7.4318208134748E-01  9.8074944935671E-01
    88  8.7000000000000E-01  7.1201473374264E-01  1.0134581389186E+00
    89  8.8000000000000E-01  6.8068401762097E-01  1.0451501841297E+00
    90  8.9000000000000E-01  6.4923886731823E-01  1.0757704468828E+00
    91  9.0000000000000E-01  6.1772779110778E-01  1.1052667986527E+00
    92  9.1000000000000E-01  5.8619880347433E-01  1.1335901459767E+00
    93  9.2000000000000E-01  5.5469936162639E-01  1.1606944391081E+00
    94  9.3000000000000E-01  5.2327630598326E-01  1.1865366650866E+00
    95  9.4000000000000E-01  4.9197580432806E-01  1.2110768266141E+00
    96  9.5000000000000E-01  4.6084329927936E-01  1.2342779082473E+00
    97  9.6000000000000E-01  4.2992345870125E-01  1.2561058315225E+00
    98  9.7000000000000E-01  3.9926012864579E-01  1.2765294007128E+00
    99  9.8000000000000E-01  3.6889628840223E-01  1.2955202409775E+00
   100  9.9000000000000E-01  3.3887400721558E-01  1.3130527307047E+00
   101  1.0000000000000E+00  3.0923440223213E-01  1.3291039298653E+00
   102  1.0100000000000E+00  2.8001759723241E-01  1.3436535061845E+00
   103  1.0200000000000E+00  2.5126268172212E-01  1.3566836609140E+00
   104  1.0300000000000E+00  2.2300766996893E-01  1.3681790559275E+00
   105  1.0400000000000E+00  1.9528945959806E-01  1.3781267437900E+00
   106  1.0500000000000E+00  1.6814378939095E-01  1.3865161023527E+00
   107  1.0600000000000E+00  1.4160519596981E-01  1.3933387753037E+00
   108  1.0700000000000E+00  1.1570696909534E-01  1.3985886199697E+00
   109  1.0800000000000E+00  9.0481105355174E-02  1.4022616635029E+00
   110  1.0900000000000E+00  6.5958260076231E-02  1.4043560684161E+00
   111  1.1000000000000E+00  4.2167697353877E-02  1.4048721082395E+00
   112  1.1100000000000E+00  1.9137238155144E-02  1.4038121538706E+00
   113  1.1200000000000E+00 -3.1067934801698E-03  1.4011806709789E+00
   114  1.1300000000000E+00 -2.4539626046952E-02  1.3969842286033E+00
   115  1.1400000000000E+00 -4.5138097826702E-02  1.3912315188598E+00
   116  1.1500000000000E+00 -6.4880715547927E-02  1.3839333874424E+00
   117  1.1600000000000E+00 -8.3747714148257E-02  1.3751028743754E+00
   118  1.1700000000000E+00 -1.0172111726081E-01  1.3647552642451E+00
   119  1.1800000000000E+00 -1.1878479797981E-01  1.3529081449190E+00
   120  1.1900000000000E+00 -1.3492453939475E-01  1.3395814735419E+00
   121  1.2000000000000E+00 -1.5012809432141E-01  1.3247976484001E+00
   122  1.2100000000000E+00 -1.6438524360113E-01  1.3085815850444E+00
   123  1.2200000000000E+00 -1.7768785228828E-01  1.2909607948944E+00
   124  1.2300000000000E+00 -1.9002992300114E-01  1.2719654643794E+00
   125  1.2400000000000E+00 -2.0140764567293E-01  1.2516285325374E+00
   126  1.2500000000000E+00 -2.1181944290926E-01  1.2299857648717E+00
   127  1.2600000000000E+00 -2.2126601013599E-01  1.2070758211711E+00
   128  1.2700000000000E+00 -2.2975034970741E-01  1.1829403149294E+00
   129  1.2800000000000E+00 -2.3727779814013E-01  1.1576238619565E+00
   130  1.2900000000000E+00 -2.4385604564289E-01  1.1311741157563E+00
   131  1.3000000000000E+00 -2.4949514712642E-01  1.1036417872590E+00
   132  1.3100000000000E+00 -2.5420752390192E-01  1.0750806465351E+00
   133  1.3200000000000E+00 -2.5800795531041E-01  1.0455475041864E+00
   134  1.3300000000000E+00 -2.6091355956868E-01  1.0151021702098E+00
   135  1.3400000000000E+00 -2.6294376317098E-01  9.8380738825211E-01
   136  1.3500000000000E+00 -2.6412025824753E-01  9.5172874333023E-01
   137  1.3600000000000E+00 -2.6446694735248E-01  9.1893454126924E-01
   138  1.3700000000000E+00 -2.6400987523362E-01  8.8549565831812E-01
   139  1.3800000000000E+00 -2.6277714722333E-01  8.5148535963050E-01
   140  1.3900000000000E+00 -2.6079883398499E-01  8.1697908554912E-01
   141  1.4000000000000E+00 -2.5810686245037E-01  7.8205420490416E-01
   142  1.4100000000000E+00 -2.5473489288955E-01  7.4678973482329E-01
   143  1.4200000000000E+00 -2.5071818216686E-01  7.1126602685481E-01
   144  1.4300000000000E+00 -2.4609343335068E-01  6.7556441952069E-01
   145  1.4400000000000E+00 -2.4089863196285E-01  6.3976685774112E-01
   146  1.4500000000000E+00 -2.3517286927296E-01  6.0395547990400E-01
   147  1.4600000000000E+00 -2.2895615316210E-01  5.6821217368686E-01
   148  1.4700000000000E+00 -2.2228920720046E-01  5.3261810207339E-01
   149  1.4800000000000E+00 -2.1521325867777E-01  4.9725320120848E-01
   150  1.4900000000000E+00 -2.0776981639002E-01  4.6219565181074E-01
   151  1.5000000000000E+00 -2.0000044142630E-01  4.2752133942110E-01
   152  1.5100000000000E+00 -1.9194650067298E-01  3.9330324054651E-01
   153  1.5200000000000E+00 -1.8364907216300E-01  3.5961170976798E-01
   154  1.5300000000000E+00 -1.7514910573625E-01  3.2651615717907E-01
   155  1.5400000000000E+00 -1.6648740970447E-01  2.9408556558720E-01
   156  1.5500000000000E+00 -1.5770448377537E-01  2.6238808247764E-01
   157  1.5600000000000E+00 -1.4884035798429E-01  2.3149065386268E-01
   158  1.5700000000000E+00 -1.3993442771729E-01  2.0145863593111E-01
   159  1.5800000000000E+00 -1.3102528810050E-01  1.7235540087628E-01
   160  1.5900000000000E+00 -1.2215056894889E-01  1.4424194020074E-01
   161  1.6000000000000E+00 -1.1334677147929E-01  1.1717646882829E-01
   162  1.6100000000000E+00 -1.0464910807415E-01  9.1214033766173E-02
   163  1.6200000000000E+00 -9.6091346346994E-02  6.6406130852445E-02
   164  1.6300000000000E+00 -8.7705658781819E-02  4.2800333255347E-02
   165  1.6400000000000E+00 -7.9522479195971E-02  2.0439935315943E-02
   166  1.6500000000000E+00 -7.1570367239017E-02 -6.3638479369900E-04
   167  1.6600000000000E+00 -6.3875882105515E-02 -2.0394880200050E-02
   168  1.6700000000000E+00 -5.6463466577087E-02 -3.8807025042638E-02
   169  1.6800000000000E+00 -4.9355342467073E-02 -5.5849775637676E-02
   170  1.6900000000000E+00 -4.2571418436344E-02 -7.1505800309223E-02
   171  1.7000000000000E+00 -3.6129211087569E-02 -8.5763675224479E-02
   172  1.7100000000000E+00 -3.0043780151359E-02 -9.8618043832297E-02
   173  1.7200000000000E+00 -2.4327678462481E-02 -1.1006973784894E-01
   174  1.7300000000000E+00 -1.8990917326573E-02 -1.2012585798306E-01
   175  1.7400000000000E+00 -1.4040947767160E-02 -1.2879981288939E-01
   176  1.7500000000000E+00 -9.4826580078868E-03 -1.3611131524161E-01
   177  1.7600000000000E+00 -5.3183874365328E-03 -1.4208633408317E-01
   178  1.7700000000000E+00 -1.5479571459906E-03 -1.4675700307688E-01
   179  1.7800000000000E+00  1.8312829499441E-03 -1.5016148448470E-01
   180  1.7900000000000E+00  4.8243905915070E-03 -1.5234378922023E-01
   181  1.8000000000000E+00  7.4387515308357E-03 -1.5335355365740E-01
   182  1.8100000000000E+00  9.6839841750404E-03 -1.5324577415224E-01
   183  1.8200000000000E+00  1.1571829065465E-02 -1.5208050068506E-01
   184  1.8300000000000E+00  1.3116023881395E-02 -1.4992249142957E-01
   185  1.8400000000000E+00  1.4332164738123E-02 -1.4684083022524E-01
   186  1.8500000000000E+00  1.5237554709885E-02 -1.4290850944900E-01
   187  1.8600000000000E+00  1.5851040583063E-02 -1.3820198094204E-01
   188  1.8700000000000E+00  1.6192838972849E-02 -1.3280067804595E-01
   189  1.8800000000000E+00  1.6284353017349E-02 -1.2678651201371E-01
   190  1.8900000000000E+00  1.6147980937313E-02 -1.2024334625765E-01
   191  1.9000000000000E+00  1.5806917850964E-02 -1.1325645222353E-01
   192  1.9100000000000E+00  1.5284952279722E-02 -1.0591195078869E-01
   193  1.9200000000000E+00  1.4606258829218E-02 -9.8296243218202E-02
   194  1.9300000000000E+00  1.3795188517447E-02 -9.0495435617659E-02
   195  1.9400000000000E+00  1.2876058730590E-02 -8.2594762866736E-02
   196  1.9500000000000E+00  1.1872943049859E-02 -7.4678010905112E-02
   197  1.9600000000000E+00  1.0809466823713E-02 -6.6826956218125E-02
   198  1.9700000000000E+00  9.7085935561457E-03 -5.9120780733192E-02
   199  1.9800000000000E+00  8.5924378362343E-03 -5.1635556373692E-02
   200  1.9900000000000E+00  7.4821184338913E-03 -4.4443840806571E-02
   201  2.0000000000000E+00  6.3971002530396E-03 -3.7612891917924E-02
   202  2.0100000000000E+00  5.3510993148510E-03 -3.1193520421931E-02
   203  2.0200000000000E+00  4.3584340226371E-03 -2.5237312540865E-02
   204  2.0300000000000E+00  3.4374651788117E-03 -1.9805995031799E-02
   205  2.0400000000000E+00  2.6036880000064E-03 -1.4952721074917E-02
   206  2.0500000000000E+00  1.8704746837779E-03 -1.0724067266589E-02
   207  2.0600000000000E+00  1.2488111508028E-03 -7.1593121040584E-03
   208  2.0700000000000E+00  7.4739410490888E-04 -4.2912165712325E-03
   209  2.0800000000000E+00  3.7142161249715E-04 -2.1391402407183E-03
   210  2.0900000000000E+00  1.2511803822556E-04 -7.2404945193145E-04
   211  2.1000000000000E+00  1.4815659599574E-05 -8.6490653223313E-05
   212  2.1100000000000E+00 -4.8035100226537E-06  2.7949128557447E-05
   213  2.1200000000000E+00  1.2665356181946E-06 -7.3480409140984E-06
   214  2.13 -0.  0.
   215  2.14 -0.  0.
   216  2.15  0. -0.
   217  2.16  0.  0.
   218  2.17  0.  0.
   219  2.18  0.  0.
   220  2.19  0.  0.
   221  2.20  0.  0.
   222  2.21  0.  0.
   223  2.22  0.  0.
   224  2.23  0.  0.
   225  2.24  0.  0.
   226  2.25  0.  0.
   227  2.26  0.  0.
   228  2.27  0.  0.
   229  2.28  0.  0.
   230  2.29  0.  0.
   231  2.30  0.  0.
   232  2.31  0.  0.
   233  2.32  0.  0.
   234  2.33  0.  0.
   235  2.34  0.  0.
   236  2.35  0.  0.
   237  2.36  0.  0.
   238  2.37  0.  0.
   239  2.38  0.  0.
   240  2.39  0.  0.
   241  2.40  0.  0.
   242  2.41  0.  0.
   243  2.42  0.  0.
   244  2.43  0.  0.
   245  2.44  0.  0.
   246  2.45  0.  0.
   247  2.46  0.  0.
   248  2.47  0.  0.
   249  2.48  0.  0.
   250  2.49  0.  0.
   251  2.50  0.  0.
   252  2.51  0.  0.
   253  2.52  0.  0.
   254  2.53  0.  0.
   255  2.54  0.  0.
   256  2.55  0.  0.
   257  2.56  0.  0.
   258  2.57  0.  0.
   259  2.58  0.  0.
   260  2.59  0.  0.
   261  2.60  0.  0.
   262  2.61  0.  0.
   263  2.62  0.  0.
   264  2.63  0.  0.
   265  2.64  0.  0.
   266  2.65  0.  0.
   267  2.66  0.  0.
   268  2.67  0.  0.
   269  2.68  0.  0.
   270  2.69  0.  0.
   271  2.70  0.  0.
   272  2.71  0.  0.
   273  2.72  0.  0.
   274  2.73  0.  0.
   275  2.74  0.  0.
   276  2.75  0.  0.
   277  2.76  0.  0.
   278  2.77  0.  0.
   279  2.78  0.  0.
   280  2.79  0.  0.
   281  2.80  0.  0.
   282  2.81  0.  0.
   283  2.82  0.  0.
   284  2.83  0.  0.
   285  2.84  0.  0.
   286  2.85  0.  0.
   287  2.86  0.  0.
   288  2.87  0.  0.
   289  2.88  0.  0.
   290  2.89  0.  0.
   291  2.90  0.  0.
   292  2.91  0.  0.
   293  2.92  0.  0.
   294  2.93  0.  0.
   295  2.94  0.  0.
   296  2.95  0.  0.
   297  2.96  0.  0.
   298  2.97  0.  0.
   299  2.98  0.  0.
   300  2.99  0.  0.
   301  3.00  0.  0.
   302  3.01  0.  0.
   303  3.02  0.  0.
   304  3.03  0.  0.
   305  3.04  0.  0.
   306  3.05  0.  0.
   307  3.06  0.  0.
   308  3.07  0.  0.
   309  3.08  0.  0.
   310  3.09  0.  0.
   311  3.10  0.  0.
   312  3.11  0.  0.
   313  3.12  0.  0.
   314  3.13  0.  0.
   315  3.14  0.  0.
   316  3.15  0.  0.
   317  3.16  0.  0.
   318  3.17  0.  0.
   319  3.18  0.  0.
   320  3.19  0.  0.
   321  3.20  0.  0.
   322  3.21  0.  0.
   323  3.22  0.  0.
   324  3.23  0.  0.
   325  3.24  0.  0.
   326  3.25  0.  0.
   327  3.26  0.  0.
   328  3.27  0.  0.
   329  3.28  0.  0.
   330  3.29  0.  0.
   331  3.30  0.  0.
   332  3.31  0.  0.
   333  3.32  0.  0.
   334  3.33  0.  0.
   335  3.34  0.  0.
   336  3.35  0.  0.
   337  3.36  0.  0.
   338  3.37  0.  0.
   339  3.38  0.  0.
   340  3.39  0.  0.
   341  3.40  0.  0.
   342  3.41  0.  0.
   343  3.42  0.  0.
   344  3.43  0.  0.
   345  3.44  0.  0.
   346  3.45  0.  0.
   347  3.46  0.  0.
   348  3.47  0.  0.
   349  3.48  0.  0.
   350  3.49  0.  0.
   351  3.50  0.  0.
   352  3.51  0.  0.
   353  3.52  0.  0.
   354  3.53  0.  0.
   355  3.54  0.  0.
   356  3.55  0.  0.
   357  3.56  0.  0.
   358  3.57  0.  0.
   359  3.58  0.  0.
   360  3.59  0.  0.
   361  3.60  0.  0.
   362  3.61  0.  0.
   363  3.62  0.  0.
   364  3.63  0.  0.
   365  3.64  0.  0.
   366  3.65  0.  0.
   367  3.66  0.  0.
   368  3.67  0.  0.
   369  3.68  0.  0.
   370  3.69  0.  0.
   371  3.70  0.  0.
   372  3.71  0.  0.
   373  3.72  0.  0.
   374  3.73  0.  0.
   375  3.74  0.  0.
   376  3.75  0.  0.
   377  3.76  0.  0.
   378  3.77  0.  0.
   379  3.78  0.  0.
   380  3.79  0.  0.
   381  3.80  0.  0.
   382  3.81  0.  0.
   383  3.82  0.  0.
   384  3.83  0.  0.
   385  3.84  0.  0.
   386  3.85  0.  0.
   387  3.86  0.  0.
   388  3.87  0.  0.
   389  3.88  0.  0.
   390  3.89  0.  0.
   391  3.90  0.  0.
   392  3.91  0.  0.
   393  3.92  0.  0.
   394  3.93  0.  0.
   395  3.94  0.  0.
   396  3.95  0.  0.
   397  3.96  0.  0.
   398  3.97  0.  0.
   399  3.98  0.  0.
   400  3.99  0.  0.
   401  4.00  0.  0.
   402  4.01  0.  0.
   403  4.02  0.  0.
   404  4.03  0.  0.
   405  4.04  0.  0.
   406  4.05  0.  0.
   407  4.06  0.  0.
   408  4.07  0.  0.
   409  4.08  0.  0.
   410  4.09  0.  0.
   411  4.10  0.  0.
   412  4.11  0.  0.
   413  4.12  0.  0.
   414  4.13  0.  0.
   415  4.14  0.  0.
   416  4.15  0.  0.
   417  4.16  0.  0.
   418  4.17  0.  0.
   419  4.18  0.  0.
   420  4.19  0.  0.
   421  4.20  0.  0.
   422  4.21  0.  0.
   423  4.22  0.  0.
   424  4.23  0.  0.
   425  4.24  0.  0.
   426  4.25  0.  0.
   427  4.26  0.  0.
   428  4.27  0.  0.
   429  4.28  0.  0.
   430  4.29  0.  0.
   431  4.30  0.  0.
   432  4.31  0.  0.
   433  4.32  0.  0.
   434  4.33  0.  0.
   435  4.34  0.  0.
   436  4.35  0.  0.
   437  4.36  0.  0.
   438  4.37  0.  0.
   439  4.38  0.  0.
   440  4.39  0.  0.
   441  4.40  0.  0.
   442  4.41  0.  0.
   443  4.42  0.  0.
   444  4.43  0.  0.
   445  4.44  0.  0.
   446  4.45  0.  0.
   447  4.46  0.  0.
   448  4.47  0.  0.
   449  4.48  0.  0.
   450  4.49  0.  0.
   451  4.50  0.  0.
   452  4.51  0.  0.
   453  4.52  0.  0.
   454  4.53  0.  0.
   455  4.54  0.  0.
   456  4.55  0.  0.
   457  4.56  0.  0.
   458  4.57  0.  0.
   459  4.58  0.  0.
   460  4.59  0.  0.
   461  4.60  0.  0.
   462  4.61  0.  0.
   463  4.62  0.  0.
   464  4.63  0.  0.
   465  4.64  0.  0.
   466  4.65  0.  0.
   467  4.66  0.  0.
   468  4.67  0.  0.
   469  4.68  0.  0.
   470  4.69  0.  0.
   471  4.70  0.  0.
   472  4.71  0.  0.
   473  4.72  0.  0.
   474  4.73  0.  0.
   475  4.74  0.  0.
   476  4.75  0.  0.
   477  4.76  0.  0.
   478  4.77  0.  0.
   479  4.78  0.  0.
   480  4.79  0.  0.
   481  4.80  0.  0.
   482  4.81  0.  0.
   483  4.82  0.  0.
   484  4.83  0.  0.
   485  4.84  0.  0.
   486  4.85  0.  0.
   487  4.86  0.  0.
   488  4.87  0.  0.
   489  4.88  0.  0.
   490  4.89  0.  0.
   491  4.90  0.  0.
   492  4.91  0.  0.
   493  4.92  0.  0.
   494  4.93  0.  0.
   495  4.94  0.  0.
   496  4.95  0.  0.
   497  4.96  0.  0.
   498  4.97  0.  0.
   499  4.98  0.  0.
   500  4.99  0.  0.
   501  5.00  0.  0.
   502  5.01  0.  0.
   503  5.02  0.  0.
   504  5.03  0.  0.
   505  5.04  0.  0.
   506  5.05  0.  0.
   507  5.06  0.  0.
   508  5.07  0.  0.
   509  5.08  0.  0.
   510  5.09  0.  0.
   511  5.10  0.  0.
   512  5.11  0.  0.
   513  5.12  0.  0.
   514  5.13  0.  0.
   515  5.14  0.  0.
   516  5.15  0.  0.
   517  5.16  0.  0.
   518  5.17  0.  0.
   519  5.18  0.  0.
   520  5.19  0.  0.
   521  5.20  0.  0.
   522  5.21  0.  0.
   523  5.22  0.  0.
   524  5.23  0.  0.
   525  5.24  0.  0.
   526  5.25  0.  0.
   527  5.26  0.  0.
   528  5.27  0.  0.
   529  5.28  0.  0.
   530  5.29  0.  0.
   531  5.30  0.  0.
   532  5.31  0.  0.
   533  5.32  0.  0.
   534  5.33  0.  0.
   535  5.34  0.  0.
   536  5.35  0.  0.
   537  5.36  0.  0.
   538  5.37  0.  0.
   539  5.38  0.  0.
   540  5.39  0.  0.
   541  5.40  0.  0.
   542  5.41  0.  0.
   543  5.42  0.  0.
   544  5.43  0.  0.
   545  5.44  0.  0.
   546  5.45  0.  0.
   547  5.46  0.  0.
   548  5.47  0.  0.
   549  5.48  0.  0.
   550  5.49  0.  0.
   551  5.50  0.  0.
   552  5.51  0.  0.
   553  5.52  0.  0.
   554  5.53  0.  0.
   555  5.54  0.  0.
   556  5.55  0.  0.
   557  5.56  0.  0.
   558  5.57  0.  0.
   559  5.58  0.  0.
   560  5.59  0.  0.
   561  5.60  0.  0.
   562  5.61  0.  0.
   563  5.62  0.  0.
   564  5.63  0.  0.
   565  5.64  0.  0.
   566  5.65  0.  0.
   567  5.66  0.  0.
   568  5.67  0.  0.
   569  5.68  0.  0.
   570  5.69  0.  0.
   571  5.70  0.  0.
   572  5.71  0.  0.
   573  5.72  0.  0.
   574  5.73  0.  0.
   575  5.74  0.  0.
   576  5.75  0.  0.
   577  5.76  0.  0.
   578  5.77  0.  0.
   579  5.78  0.  0.
   580  5.79  0.  0.
   581  5.80  0.  0.
   582  5.81  0.  0.
   583  5.82  0.  0.
   584  5.83  0.  0.
   585  5.84  0.  0.
   586  5.85  0.  0.
   587  5.86  0.  0.
   588  5.87  0.  0.
   589  5.88  0.  0.
   590  5.89  0.  0.
   591  5.90  0.  0.
   592  5.91  0.  0.
   593  5.92  0.  0.
   594  5.93  0.  0.
   595  5.94  0.  0.
   596  5.95  0.  0.
   597  5.96  0.  0.
   598  5.97  0.  0.
   599  5.98  0.  0.
   600  5.99  0.  0.
   1                         5.1356269338414E+00  5.9315949165179E-01
     1  0.0000000000000E+00  6.1482242907918E-11 -1.2237160590400E-10
     2  1.0000000000000E-02  8.8925472866699E-04 -5.2086150570509E-04
     3  2.0000000000000E-02  3.5548306736326E-03 -2.0812701702321E-03
     4  3.0000000000000E-02  7.9901693434345E-03 -4.6747070954102E-03
     5  4.0000000000000E-02  1.4184360657587E-02 -8.2903362481164E-03
     6  5.0000000000000E-02  2.2122173937540E-02 -1.2913047418497E-02
     7  6.0000000000000E-02  3.1784101061363E-02 -1.8523515889620E-02
     8  7.0000000000000E-02  4.3146411552516E-02 -2.5098278354209E-02
     9  8.0000000000000E-02  5.6181219311588E-02 -3.2609824491740E-02
    10  9.0000000000000E-02  7.0856560641666E-02 -4.1026703504875E-02
    11  1.0000000000000E-01  8.7136483163303E-02 -5.0313644808684E-02
    12  1.1000000000000E-01  1.0498114516473E-01 -6.0431691971344E-02
    13  1.2000000000000E-01  1.2434692488738E-01 -7.1338348921880E-02
    14  1.3000000000000E-01  1.4518653920622E-01 -8.2987737370240E-02
    15  1.4000000000000E-01  1.6744917112999E-01 -9.5330764328329E-02
    16  1.5000000000000E-01  1.9108060551689E-01 -1.0831529857838E-01
    17  1.6000000000000E-01  2.1602337237910E-01 -1.2188635490764E-01
    18  1.7000000000000E-01  2.4221689713259E-01 -1.3598628491608E-01
    19  1.8000000000000E-01  2.6959765713864E-01 -1.5055497320658E-01
    20  1.9000000000000E-01  2.9809934387967E-01 -1.6553003778536E-01
    21  2.0000000000000E-01  3.2765303011445E-01 -1.8084703353265E-01
    22  2.1000000000000E-01  3.5818734136620E-01 -1.9643965765072E-01
    23  2.2000000000000E-01  3.8962863111155E-01 -2.1223995605614E-01
    24  2.3000000000000E-01  4.2190115905823E-01 -2.2817852975614E-01
    25  2.4000000000000E-01  4.5492727192419E-01 -2.4418474033188E-01
    26  2.5000000000000E-01  4.8862758616089E-01 -2.6018691374571E-01
    27  2.6000000000000E-01  5.2292117209686E-01 -2.7611254179101E-01
    28  2.7000000000000E-01  5.5772573901541E-01 -2.9188848061214E-01
    29  2.8000000000000E-01  5.9295782072054E-01 -3.0744114583588E-01
    30  2.9000000000000E-01  6.2853296118748E-01 -3.2269670397270E-01
    31  3.0000000000000E-01  6.6436589993891E-01 -3.3758125986472E-01
    32  3.1000000000000E-01  7.0037075683251E-01 -3.5202104007533E-01
    33  3.2000000000000E-01  7.3646121599093E-01 -3.6594257223043E-01
    34  3.3000000000000E-01  7.7255070864972E-01 -3.7927286043277E-01
    35  3.4000000000000E-01  8.0855259474205E-01 -3.9193955697527E-01
    36  3.5000000000000E-01  8.4438034308028E-01 -4.0387113067599E-01
    37  3.6000000000000E-01  8.7994771003286E-01 -4.1499703224415E-01
    38  3.7000000000000E-01  9.1516891663042E-01 -4.2524785716202E-01
    39  3.8000000000000E-01  9.4995882406572E-01 -4.3455550662982E-01
    40  3.9000000000000E-01  9.8423310757932E-01 -4.4285334716909E-01
    41  4.0000000000000E-01  1.0179084287440E+00 -4.5007636951277E-01
    42  4.1000000000000E-01  1.0509026061775E+00 -4.5616134742698E-01
    43  4.2000000000000E-01  1.0831347847241E+00 -4.6104699710889E-01
    44  4.3000000000000E-01  1.1145256031493E+00 -4.6467413778769E-01
    45  4.4000000000000E-01  1.1449973603900E+00 -4.6698585411975E-01
    46  4.5000000000000E-01  1.1744741803966E+00 -4.6792766091673E-01
    47  4.6000000000000E-01  1.2028821755867E+00 -4.6744767067445E-01
    48  4.7000000000000E-01  1.2301496089108E+00 -4.6549676428370E-01
    49  4.8000000000000E-01  1.2562070545048E+00 -4.6202876520109E-01
    50  4.9000000000000E-01  1.2809875568709E+00 -4.5700061724002E-01
    51  5.0000000000000E-01  1.3044267884909E+00 -4.5037256601067E-01
    52  5.1000000000000E-01  1.3264632057359E+00 -4.4210834389422E-01
    53  5.2000000000000E-01  1.3470382028862E+00 -4.3217535828282E-01
    54  5.3000000000000E-01  1.3660962640297E+00 -4.2054488265499E-01
    55  5.4000000000000E-01  1.3835851125485E+00 -4.0719224988750E-01
    56  5.5000000000000E-01  1.3994558578533E+00 -3.9209704703293E-01
    57  5.6000000000000E-01  1.4136631389651E+00 -3.7524331061845E-01
    58  5.7000000000000E-01  1.4261652644867E+00 -3.5661972134853E-01
    59  5.8000000000000E-01  1.4369243484511E+00 -3.3621979692561E-01
    60  5.9000000000000E-01  1.4459064414766E+00 -3.1404208153967E-01
    61  6.0000000000000E-01  1.4530816566061E+00 -2.9009033042398E-01
    62  6.1000000000000E-01  1.4584242891568E+00 -2.6437368773142E-01
    63  6.2000000000000E-01  1.4619129298604E+00 -2.3690685585766E-01
    64  6.3000000000000E-01  1.4635305705339E+00 -2.0771025422492E-01
    65  6.4000000000000E-01  1.4632647014835E+00 -1.7681016544657E-01
    66  6.5000000000000E-01  1.4611073998169E+00 -1.4423886672041E-01
    67  6.6000000000000E-01  1.4570554078182E+00 -1.1003474424798E-01
    68  6.7000000000000E-01  1.4511102005236E+00 -7.4242388452076E-02
    69  6.8000000000000E-01  1.4432780416363E+00 -3.6912667764778E-02
    70  6.9000000000000E-01  1.4335700269192E+00  1.8972212142884E-03
    71  7.0000000000000E-01  1.4220021142212E+00  4.2123729334449E-02
    72  7.1000000000000E-01  1.4085951393161E+00  8.3696958346508E-02
    73  7.2000000000000E-01  1.3933748167695E+00  1.2654069413992E-01
    74  7.3000000000000E-01  1.3763717250923E+00  1.7057247157239E-01
    75  7.4000000000000E-01  1.3576212754948E+00  2.1570367253033E-01
    76  7.5000000000000E-01  1.3371636636247E+00  2.6183965866224E-01
    77  7.6000000000000E-01  1.3150438037417E+00  3.0887994000452E-01
    78  7.7000000000000E-01  1.2913112448725E+00  3.5671838047212E-01
    79  7.8000000000000E-01  1.2660200685802E+00  4.0524344091672E-01
    80  7.9000000000000E-01  1.2392287680858E+00  4.5433846016464E-01
    81  8.0000000000000E-01  1.2110001085907E+00  5.0388197413873E-01
    82  8.1000000000000E-01  1.1814009687646E+00  5.5374807284479E-01
    83  8.2000000000000E-01  1.1505021634855E+00  6.0380679466728E-01
    84  8.3000000000000E-01  1.1183782480494E+00  6.5392455707496E-01
    85  8.4000000000000E-01  1.0851073041939E+00  7.0396462248664E-01
    86  8.5000000000000E-01  1.0507707084175E+00  7.5378759769542E-01
    87  8.6000000000000E-01  1.0154528832095E+00  8.0325196490026E-01
    88  8.7000000000000E-01  9.7924103194072E-01  8.5221464204858E-01
    89  8.8000000000000E-01  9.4222485829912E-01  9.0053156985986E-01
    90  8.9000000000000E-01  9.0449627128486E-01  9.4805832257784E-01
    91  9.0000000000000E-01  8.6614907690641E-01  9.9465073919531E-01
    92  9.1000000000000E-01  8.2727865784051E-01  1.0401655716115E+00