Rb    ONCVPSP-4.0.1  r_core=   3.02003   2.81083   3.30355
     37.0000      9.0000      220723    zatom,zion,pspd
     8      11   2     4   600     0    pspcod,pspxc,lmax,lloc,mmax,r2well
  5.99000000  7.00000000  0.00000000    rchrg fchrg qchrg
     2     2     2     0     0    nproj
     1     1           extension_switch
   0                         2.6510179721892E+00  4.9557662904986E-01
     1  0.0000000000000E+00  2.2787327580431E-13 -6.0003391144647E-13
     2  1.0000000000000E-02  3.5440758097430E-02 -8.0639626162022E-03
     3  2.0000000000000E-02  7.0853164840393E-02 -1.6109724722561E-02
     4  3.0000000000000E-02  1.0620889216465E-01 -2.4119100285775E-02
     5  4.0000000000000E-02  1.4147965858042E-01 -3.2073932245381E-02
     6  5.0000000000000E-02  1.7663725244472E-01 -3.9956107049355E-02
     7  6.0000000000000E-02  2.1165355521541E-01 -4.7747569248342E-02
     8  7.0000000000000E-02  2.4650056468094E-01 -5.5430336167272E-02
     9  8.0000000000000E-02  2.8115041815896E-01 -6.2986512672572E-02
    10  9.0000000000000E-02  3.1557541565706E-01 -7.0398306052385E-02
    11  1.0000000000000E-01  3.4974804298839E-01 -7.7648041026278E-02
    12  1.1000000000000E-01  3.8364099483450E-01 -8.4718174899892E-02
    13  1.2000000000000E-01  4.1722719774733E-01 -9.1591312878733E-02
    14  1.3000000000000E-01  4.5047983308169E-01 -9.8250223554046E-02
    15  1.4000000000000E-01  4.8337235984910E-01 -1.0467785457214E-01
    16  1.5000000000000E-01  5.1587853748316E-01 -1.1085734849707E-01
    17  1.6000000000000E-01  5.4797244850611E-01 -1.1677205887475E-01
    18  1.7000000000000E-01  5.7962852108522E-01 -1.2240556650491E-01
    19  1.8000000000000E-01  6.1082155146750E-01 -1.2774169592518E-01
    20  1.9000000000000E-01  6.4152672627981E-01 -1.3276453210982E-01
    21  2.0000000000000E-01  6.7171964468115E-01 -1.3745843738330E-01
    22  2.1000000000000E-01  7.0137634035288E-01 -1.4180806854700E-01
    23  2.2000000000000E-01  7.3047330331185E-01 -1.4579839421467E-01
    24  2.3000000000000E-01  7.5898750153058E-01 -1.4941471235054E-01
    25  2.4000000000000E-01  7.8689640234769E-01 -1.5264266800111E-01
    26  2.5000000000000E-01  8.1417799365113E-01 -1.5546827120952E-01
    27  2.6000000000000E-01  8.4081080481565E-01 -1.5787791509896E-01
    28  2.7000000000000E-01  8.6677392737519E-01 -1.5985839410916E-01
    29  2.8000000000000E-01  8.9204703541017E-01 -1.6139692236736E-01
    30  2.9000000000000E-01  9.1661040562853E-01 -1.6248115217310E-01
    31  3.0000000000000E-01  9.4044493711877E-01 -1.6309919257330E-01
    32  3.1000000000000E-01  9.6353217075245E-01 -1.6323962800204E-01
    33  3.2000000000000E-01  9.8585430821257E-01 -1.6289153695693E-01
    34  3.3000000000000E-01  1.0073942306239E+00 -1.6204451068162E-01
    35  3.4000000000000E-01  1.0281355167606E+00 -1.6068867182175E-01
    36  3.5000000000000E-01  1.0480624608048E+00 -1.5881469301958E-01
    37  3.6000000000000E-01  1.0671600896315E+00 -1.5641381541007E-01
    38  3.7000000000000E-01  1.0854141795914E+00 -1.5347786697952E-01
    39  3.8000000000000E-01  1.1028112727667E+00 -1.4999928074569E-01
    40  3.9000000000000E-01  1.1193386926694E+00 -1.4597111271658E-01
    41  4.0000000000000E-01  1.1349845593569E+00 -1.4138705958322E-01
    42  4.1000000000000E-01  1.1497378039349E+00 -1.3624147610046E-01
    43  4.2000000000000E-01  1.1635881824198E+00 -1.3052939210788E-01
    44  4.3000000000000E-01  1.1765262889311E+00 -1.2424652914205E-01
    45  4.4000000000000E-01  1.1885435681865E+00 -1.1738931658989E-01
    46  4.5000000000000E-01  1.1996323272686E+00 -1.0995490733190E-01
    47  4.6000000000000E-01  1.2097857466374E+00 -1.0194119282334E-01
    48  4.7000000000000E-01  1.2189978903566E+00 -9.3346817560486E-02
    49  4.8000000000000E-01  1.2272637155085E+00 -8.4171192878772E-02
    50  4.9000000000000E-01  1.2345790807681E+00 -7.4414510029198E-02
    51  5.0000000000000E-01  1.2409407541076E+00 -6.4077752479151E-02
    52  5.1000000000000E-01  1.2463464196073E+00 -5.3162707384091E-02
    53  5.2000000000000E-01  1.2507946833436E+00 -4.1671976176357E-02
    54  5.3000000000000E-01  1.2542850783301E+00 -2.9608984218147E-02
    55  5.4000000000000E-01  1.2568180684859E+00 -1.6977989466098E-02
    56  5.5000000000000E-01  1.2583950516080E+00 -3.7840900957956E-03
    57  5.6000000000000E-01  1.2590183613242E+00  9.9667689644801E-03
    58  5.7000000000000E-01  1.2586912680047E+00  2.4267790640236E-02
    59  5.8000000000000E-01  1.2574179786122E+00  3.9111321505624E-02
    60  5.9000000000000E-01  1.2552036354701E+00  5.4488848813067E-02
    61  6.0000000000000E-01  1.2520543139322E+00  7.0390998802509E-02
    62  6.1000000000000E-01  1.2479770189356E+00  8.6807536332815E-02
    63  6.2000000000000E-01  1.2429796804232E+00  1.0372736587611E-01
    64  6.3000000000000E-01  1.2370711476221E+00  1.2113853391303E-01
    65  6.4000000000000E-01  1.2302611821656E+00  1.3902823276479E-01
    66  6.5000000000000E-01  1.2225604500498E+00  1.5738280589486E-01
    67  6.6000000000000E-01  1.2139805124158E+00  1.7618775471044E-01
    68  6.7000000000000E-01  1.2045338151532E+00  1.9542774689080E-01
    69  6.8000000000000E-01  1.1942336773184E+00  2.1508662626638E-01
    70  6.9000000000000E-01  1.1830942783681E+00  2.3514742426918E-01
    71  7.0000000000000E-01  1.1711306442069E+00  2.5559237297149E-01
    72  7.1000000000000E-01  1.1583586320508E+00  2.7640291972653E-01
    73  7.2000000000000E-01  1.1447949141136E+00  2.9755974342070E-01
    74  7.3000000000000E-01  1.1304569601199E+00  3.1904277234342E-01
    75  7.4000000000000E-01  1.1153630186564E+00  3.4083120367647E-01
    76  7.5000000000000E-01  1.0995320973716E+00  3.6290352460103E-01
    77  7.6000000000000E-01  1.0829839420386E+00  3.8523753501609E-01
    78  7.7000000000000E-01  1.0657390144966E+00  4.0781037185808E-01
    79  7.8000000000000E-01  1.0478184694904E+00  4.3059853500728E-01
    80  7.9000000000000E-01  1.0292441304286E+00  4.5357791476222E-01
    81  8.0000000000000E-01  1.0100384640838E+00  4.7672382085910E-01
    82  8.1000000000000E-01  9.9022455426191E-01  5.0001101300884E-01
    83  8.2000000000000E-01  9.6982607446686E-01  5.2341373292020E-01
    84  8.3000000000000E-01  9.4886725959329E-01  5.4690573777310E-01
    85  8.4000000000000E-01  9.2737287667906E-01  5.7046033510175E-01
    86  8.5000000000000E-01  9.0536819475336E-01  5.9405041904344E-01
    87  8.6000000000000E-01  8.8287895381792E-01  6.1764850790396E-01
    88  8.7000000000000E-01  8.5993133300110E-01  6.4122678298733E-01
    89  8.8000000000000E-01  8.3655191792687E-01  6.6475712863265E-01
    90  8.9000000000000E-01  8.1276766734285E-01  6.8821117339736E-01
    91  9.0000000000000E-01  7.8860587905339E-01  7.1156033232241E-01
    92  9.1000000000000E-01  7.6409415520601E-01  7.3477585021056E-01
    93  9.2000000000000E-01  7.3926036698108E-01  7.5782884584603E-01
    94  9.3000000000000E-01  7.1413261873662E-01  7.8069035707969E-01
    95  9.4000000000000E-01  6.8873921166178E-01  8.0333138670098E-01
    96  9.5000000000000E-01  6.6310860699416E-01  8.2572294901435E-01
    97  9.6000000000000E-01  6.3726938885769E-01  8.4783611703494E-01
    98  9.7000000000000E-01  6.1125022677918E-01  8.6964207021572E-01
    99  9.8000000000000E-01  5.8507983794299E-01  8.9111214261515E-01
   100  9.9000000000000E-01  5.5878694924440E-01  9.1221787141234E-01
   101  1.0000000000000E+00  5.3240025920347E-01  9.3293104567424E-01
   102  1.0100000000000E+00  5.0594839980191E-01  9.5322375527755E-01
   103  1.0200000000000E+00  4.7945989830649E-01  9.7306843988587E-01
   104  1.0300000000000E+00  4.5296313914316E-01  9.9243793788157E-01
   105  1.0400000000000E+00  4.2648632588651E-01  1.0113055351500E+00
   106  1.0500000000000E+00  4.0005744342977E-01  1.0296450136126E+00
   107  1.0600000000000E+00  3.7370422040064E-01  1.0474306994057E+00
   108  1.0700000000000E+00  3.4745409188863E-01  1.0646375105989E+00
   109  1.0800000000000E+00  3.2133416254922E-01  1.0812410043492E+00
   110  1.0900000000000E+00  2.9537117015044E-01  1.0972174233855E+00
   111  1.1000000000000E+00  2.6959144962674E-01  1.1125437417178E+00
   112  1.1100000000000E+00  2.4402089770489E-01  1.1271977094682E+00
   113  1.1200000000000E+00  2.1868493816587E-01  1.1411578967183E+00
   114  1.1300000000000E+00  1.9360848780616E-01  1.1544037362713E+00
   115  1.1400000000000E+00  1.6881592316063E-01  1.1669155652272E+00
   116  1.1500000000000E+00  1.4433104804870E-01  1.1786746652707E+00
   117  1.1600000000000E+00  1.2017706200376E-01  1.1896633015742E+00
   118  1.1700000000000E+00  9.6376529644892E-02  1.1998647602192E+00
   119  1.1800000000000E+00  7.2951351048362E-02  1.2092633840425E+00
   120  1.1900000000000E+00  4.9922733174740E-02  1.2178446068158E+00
   121  1.2000000000000E+00  2.7311162405890E-02  1.2255949856707E+00
   122  1.2100000000000E+00  5.1363782441285E-03  1.2325022316818E+00
   123  1.2200000000000E+00 -1.6582651775973E-02  1.2385552385281E+00
   124  1.2300000000000E+00 -3.7827755914907E-02  1.2437441091521E+00
   125  1.2400000000000E+00 -5.8581580748506E-02  1.2480601803414E+00
   126  1.2500000000000E+00 -7.8827612337339E-02  1.2514960451628E+00
   127  1.2600000000000E+00 -9.8550196003881E-02  1.2540455731803E+00
   128  1.2700000000000E+00 -1.1773455467849E-01  1.2557039283952E+00
   129  1.2800000000000E+00 -1.3636680577791E-01  1.2564675848485E+00
   130  1.2900000000000E+00 -1.5443397658271E-01  1.2563343398330E+00
   131  1.3000000000000E+00 -1.7192401808278E-01  1.2553033246648E+00
   132  1.3100000000000E+00 -1.8882581726284E-01  1.2533750129705E+00
   133  1.3200000000000E+00 -2.0512920780293E-01  1.2505512264508E+00
   134  1.3300000000000E+00 -2.2082497917174E-01  1.2468351380854E+00
   135  1.3400000000000E+00 -2.3590488409348E-01  1.2422312727514E+00
   136  1.3500000000000E+00 -2.5036164437251E-01  1.2367455052305E+00
   137  1.3600000000000E+00 -2.6418895506249E-01  1.2303850555868E+00
   138  1.3700000000000E+00 -2.7738148697037E-01  1.2231584819025E+00
   139  1.3800000000000E+00 -2.8993488748843E-01  1.2150756703638E+00
   140  1.3900000000000E+00 -3.0184577975085E-01  1.2061478226938E+00
   141  1.4000000000000E+00 -3.1311176011444E-01  1.1963874409378E+00
   142  1.4100000000000E+00 -3.2373139396619E-01  1.1858083096079E+00
   143  1.4200000000000E+00 -3.3370420986375E-01  1.1744254752015E+00
   144  1.4300000000000E+00 -3.4303069201766E-01  1.1622552231139E+00
   145  1.4400000000000E+00 -3.5171227112758E-01  1.1493150519695E+00
   146  1.4500000000000E+00 -3.5975131358770E-01  1.1356236454010E+00
   147  1.4600000000000E+00 -3.6715110907945E-01  1.1212008413132E+00
   148  1.4700000000000E+00 -3.7391585657282E-01  1.1060675986710E+00
   149  1.4800000000000E+00 -3.8005064876019E-01  1.0902459618564E+00
   150  1.4900000000000E+00 -3.8556145494971E-01  1.0737590226456E+00
   151  1.5000000000000E+00 -3.9045510244776E-01  1.0566308798608E+00
   152  1.5100000000000E+00 -3.9473925646302E-01  1.0388865967553E+00
   153  1.5200000000000E+00 -3.9842239856687E-01  1.0205521561959E+00
   154  1.5300000000000E+00 -4.0151380374768E-01  1.0016544137112E+00
   155  1.5400000000000E+00 -4.0402351609876E-01  9.8222104847625E-01
   156  1.5500000000000E+00 -4.0596232318216E-01  9.6228051231002E-01
   157  1.5600000000000E+00 -4.0734172911246E-01  9.4186197676432E-01
   158  1.5700000000000E+00 -4.0817392640698E-01  9.2099527838699E-01
   159  1.5800000000000E+00 -4.0847176665069E-01  8.9971086224450E-01
   160  1.5900000000000E+00 -4.0824873002582E-01  8.7803972379252E-01
   161  1.6000000000000E+00 -4.0751889375795E-01  8.5601334918521E-01
   162  1.6100000000000E+00 -4.0629689953181E-01  8.3366365411679E-01
   163  1.6200000000000E+00 -4.0459791993154E-01  8.1102292129036E-01
   164  1.6300000000000E+00 -4.0243762396121E-01  7.8812373661146E-01
   165  1.6400000000000E+00 -3.9983214170261E-01  7.6499892420476E-01
   166  1.6500000000000E+00 -3.9679802816845E-01  7.4168148035398E-01
   167  1.6600000000000E+00 -3.9335222640944E-01  7.1820450646564E-01
   168  1.6700000000000E+00 -3.8951202993500E-01  6.9460114115861E-01
   169  1.6800000000000E+00 -3.8529504450723E-01  6.7090449158087E-01
   170  1.6900000000000E+00 -3.8071914936860E-01  6.4714756405599E-01
   171  1.7000000000000E+00 -3.7580245796375E-01  6.2336319416097E-01
   172  1.7100000000000E+00 -3.7056327821588E-01  5.9958397633685E-01
   173  1.7200000000000E+00 -3.6502007241817E-01  5.7584219313298E-01
   174  1.7300000000000E+00 -3.5919141680036E-01  5.5216974418436E-01
   175  1.7400000000000E+00 -3.5309596083016E-01  5.2859807502071E-01
   176  1.7500000000000E+00 -3.4675238630873E-01  5.0515810580400E-01
   177  1.7600000000000E+00 -3.4017936631861E-01  4.8188016008951E-01
   178  1.7700000000000E+00 -3.3339552408191E-01  4.5879389370347E-01
   179  1.7800000000000E+00 -3.2641939178520E-01  4.3592822382801E-01
   180  1.7900000000000E+00 -3.1926936942678E-01  4.1331125838146E-01
   181  1.8000000000000E+00 -3.1196368374067E-01  3.9097022577964E-01
   182  1.8100000000000E+00 -3.0452034725016E-01  3.6893140516032E-01
   183  1.8200000000000E+00 -2.9695711750256E-01  3.4722005715035E-01
   184  1.8300000000000E+00 -2.8929145653489E-01  3.2586035525119E-01
   185  1.8400000000000E+00 -2.8154049061877E-01  3.0487531791512E-01
   186  1.8500000000000E+00 -2.7372097033090E-01  2.8428674138098E-01
   187  1.8600000000000E+00 -2.6584923099366E-01  2.6411513333379E-01
   188  1.8700000000000E+00 -2.5794115352819E-01  2.4437964744925E-01
   189  1.8800000000000E+00 -2.5001212576062E-01  2.2509801887949E-01
   190  1.8900000000000E+00 -2.4207700421958E-01  2.0628650073234E-01
   191  1.9000000000000E+00 -2.3415007646113E-01  1.8795980159215E-01
   192  1.9100000000000E+00 -2.2624502395497E-01  1.7013102412540E-01
   193  1.9200000000000E+00 -2.1837488556346E-01  1.5281160481020E-01
   194  1.9300000000000E+00 -2.1055202164246E-01  1.3601125482402E-01
   195  1.9400000000000E+00 -2.0278807878713E-01  1.1973790210612E-01
   196  1.9500000000000E+00 -1.9509395523702E-01  1.0399763458616E-01
   197  1.9600000000000E+00 -1.8747976672678E-01  8.8794643816632E-02
   198  1.9700000000000E+00 -1.7995481728646E-01  7.4131184336684E-02
   199  1.9800000000000E+00 -1.7252755077202E-01  6.0007465325095E-02
   200  1.9900000000000E+00 -1.6520564524784E-01  4.6422035491611E-02
   201  2.0000000000000E+00 -1.5799620656818E-01  3.3372488041288E-02
   202  2.0100000000000E+00 -1.5090589206478E-01  2.0855894275217E-02
   203  2.0200000000000E+00 -1.4394089892872E-01  8.8687572712353E-03
   204  2.0300000000000E+00 -1.3710697366885E-01 -2.5929608744247E-03
   205  2.0400000000000E+00 -1.3040941772188E-01 -1.3533826851867E-02
   206  2.0500000000000E+00 -1.2385309408450E-01 -2.3958921479148E-02
   207  2.0600000000000E+00 -1.1744243446332E-01 -3.3873824356307E-02
   208  2.0700000000000E+00 -1.1118144698857E-01 -4.3284597624094E-02
   209  2.0800000000000E+00 -1.0507372443857E-01 -5.2197768965726E-02
   210  2.0900000000000E+00 -9.9122452947025E-02 -6.0620313903246E-02
   211  2.1000000000000E+00 -9.3330421138516E-02 -6.8559637523054E-02
   212  2.1100000000000E+00 -8.7700029790534E-02 -7.6023555282044E-02
   213  2.1200000000000E+00 -8.2233301768058E-02 -8.3020273661294E-02
   214  2.1300000000000E+00 -7.6931892035055E-02 -8.9558371248552E-02
   215  2.1400000000000E+00 -7.1797098999940E-02 -9.5646776229795E-02
   216  2.1500000000000E+00 -6.6829875016057E-02 -1.0129474715196E-01
   217  2.1600000000000E+00 -6.2030837484411E-02 -1.0651185233691E-01
   218  2.1700000000000E+00 -5.7400280633479E-02 -1.1130794767143E-01
   219  2.1800000000000E+00 -5.2938187027716E-02 -1.1569315573731E-01
   220  2.1900000000000E+00 -4.8644239436123E-02 -1.1967784424690E-01
   221  2.2000000000000E+00 -4.4517832826355E-02 -1.2327260448906E-01
   222  2.2100000000000E+00 -4.0558086472514E-02 -1.2648822978668E-01
   223  2.2200000000000E+00 -3.6763856153984E-02 -1.2933569400149E-01
   224  2.2300000000000E+00 -3.3133746421717E-02 -1.3182613012629E-01
   225  2.2400000000000E+00 -2.9666122898920E-02 -1.3397080903404E-01
   226  2.2500000000000E+00 -2.6359124593670E-02 -1.3578111842162E-01
   227  2.2600000000000E+00 -2.3210676199931E-02 -1.3726854199000E-01
   228  2.2700000000000E+00 -2.0218500355492E-02 -1.3844463892699E-01
   229  2.2800000000000E+00 -1.7380129841808E-02 -1.3932102371031E-01
   230  2.2900000000000E+00 -1.4692919700695E-02 -1.3990934627937E-01
   231  2.3000000000000E+00 -1.2154059245039E-02 -1.4022127261866E-01
   232  2.3100000000000E+00 -9.7605839397100E-03 -1.4026846579808E-01
   233  2.3200000000000E+00 -7.5093871402683E-03 -1.4006256748425E-01
   234  2.3300000000000E+00 -5.3972316677510E-03 -1.3961517996393E-01
   235  2.3400000000000E+00 -3.4207611968580E-03 -1.3893784872449E-01
   236  2.3500000000000E+00 -1.5765114488789E-03 -1.3804204559629E-01
   237  2.3600000000000E+00  1.3907883206218E-04 -1.3693915249968E-01
   238  2.3700000000000E+00  1.7296571344131E-03 -1.3564044582134E-01
   239  2.3800000000000E+00  3.1989466757142E-03 -1.3415708142934E-01
   240  2.3900000000000E+00  4.5507361563304E-03 -1.3250008035653E-01
   241  2.4000000000000E+00  5.7888697821966E-03 -1.3068031516991E-01
   242  2.4100000000000E+00  6.9172375684152E-03 -1.2870849704429E-01
   243  2.4200000000000E+00  7.9397659307260E-03 -1.2659516354585E-01
   244  2.4300000000000E+00  8.8604085751645E-03 -1.2435066714101E-01
   245  2.4400000000000E+00  9.6831376939020E-03 -1.2198516444026E-01
   246  2.4500000000000E+00  1.0411935477131E-02 -1.1950860619196E-01
   247  2.4600000000000E+00  1.1050785943096E-02 -1.1693072802041E-01
   248  2.4700000000000E+00  1.1603667091352E-02 -1.1426104191147E-01
   249  2.4800000000000E+00  1.2074543388399E-02 -1.1150882846022E-01
   250  2.4900000000000E+00  1.2467358584477E-02 -1.0868312986750E-01
   251  2.5000000000000E+00  1.2786028864706E-02 -1.0579274368480E-01
   252  2.5100000000000E+00  1.3034436339297E-02 -1.0284621731121E-01
   253  2.5200000000000E+00  1.3216422870452E-02 -9.9851843227479E-02
   254  2.5300000000000E+00  1.3335784236401E-02 -9.6817654960497E-02
   255  2.5400000000000E+00  1.3396264632805E-02 -9.3751423770939E-02
   256  2.5500000000000E+00  1.3401551509672E-02 -9.0660656051789E-02
   257  2.5600000000000E+00  1.3355270741072E-02 -8.7552591423670E-02
   258  2.5700000000000E+00  1.3260982123932E-02 -8.4434201510007E-02
   259  2.5800000000000E+00  1.3122175202564E-02 -8.1312189377076E-02
   260  2.5900000000000E+00  1.2942265413900E-02 -7.8192989619489E-02
   261  2.6000000000000E+00  1.2724590549066E-02 -7.5082769073506E-02
   262  2.6100000000000E+00  1.2472407523820E-02 -7.1987428133124E-02
   263  2.6200000000000E+00  1.2188889451053E-02 -6.8912602645676E-02
   264  2.6300000000000E+00  1.1877123009688E-02 -6.5863666366839E-02
   265  2.6400000000000E+00  1.1540106100376E-02 -6.2845733945242E-02
   266  2.6500000000000E+00  1.1180745779507E-02 -5.9863664409739E-02
   267  2.6600000000000E+00  1.0801856463654E-02 -5.6922065134306E-02
   268  2.6700000000000E+00  1.0406158393741E-02 -5.4025296248626E-02
   269  2.6800000000000E+00  9.9962763489523E-03 -5.1177475464191E-02
   270  2.6900000000000E+00  9.5747386001140E-03 -4.8382483285489E-02
   271  2.7000000000000E+00  9.1439760912054E-03 -4.5643968573441E-02
   272  2.7100000000000E+00  8.7063218384880E-03 -4.2965354430129E-02
   273  2.7200000000000E+00  8.2640105346282E-03 -4.0349844369219E-02
   274  2.7300000000000E+00  7.8191783460075E-03 -3.7800428738501E-02
   275  2.7400000000000E+00  7.3738628914252E-03 -3.5319891361088E-02
   276  2.7500000000000E+00  6.9300033892828E-03 -3.2910816359724E-02
   277  2.7600000000000E+00  6.4894409609176E-03 -3.0575595129649E-02
   278  2.7700000000000E+00  6.0539190770190E-03 -2.8316433424332E-02
   279  2.7800000000000E+00  5.6250841343611E-03 -2.6135358519306E-02
   280  2.7900000000000E+00  5.2044861499728E-03 -2.4034226418815E-02
   281  2.8000000000000E+00  4.7935795597677E-03 -2.2014729070740E-02
   282  2.8100000000000E+00  4.3937241087744E-03 -2.0078401555015E-02
   283  2.8200000000000E+00  4.0061862263769E-03 -1.8226630359148E-02
   284  2.8300000000000E+00  3.6321375413266E-03 -1.6460653312411E-02
   285  2.8400000000000E+00  3.2726612125532E-03 -1.4781581245595E-02
   286  2.8500000000000E+00  2.9287500803459E-03 -1.3190396096983E-02
   287  2.8600000000000E+00  2.6013050166942E-03 -1.1687950708413E-02
   288  2.8700000000000E+00  2.2911174057205E-03 -1.0274921285077E-02
   289  2.8800000000000E+00  1.9987592267342E-03 -8.9514963039773E-03
   290  2.8900000000000E+00  1.7247382565451E-03 -7.7178181009335E-03
   291  2.9000000000000E+00  1.4696885658924E-03 -6.5745238860502E-03
   292  2.9100000000000E+00  1.2341800442750E-03 -5.5222140740319E-03
   293  2.9200000000000E+00  1.0186569604255E-03 -4.5612824726780E-03
   294  2.9300000000000E+00  8.2348262292013E-04 -3.6920415788936E-03
   295  2.9400000000000E+00  6.4893238943351E-04 -2.9147037561242E-03
   296  2.9500000000000E+00  4.9519508101296E-04 -2.2293859179956E-03
   297  2.9600000000000E+00  3.6237397720755E-04 -1.6361126332685E-03
   298  2.9700000000000E+00  2.5052834723539E-04 -1.1350094504587E-03
   299  2.9800000000000E+00  1.5952520347546E-04 -7.2560260105221E-04
   300  2.9900000000000E+00  8.8840558027590E-05 -4.0589730004505E-04
   301  3.0000000000000E+00  3.9201188878882E-05 -1.8003247600815E-04
   302  3.0100000000000E+00  1.1127134810614E-05 -5.1440766596986E-05
   303  3.0200000000000E+00 -1.0077245729766E-09 -2.6579175050616E-08
   304  3.0300000000000E+00 -1.3745570479150E-06  6.3789377992566E-06
   305  3.0400000000000E+00  1.8740401381990E-07 -8.6514802884866E-07
   306  3.0500  0. -0.
   307  3.0600 -0.  0.
   308  3.0700 -0.  0.
   309  3.0800  0. -0.
   310  3.0900  0. -0.
   311  3.1000  0.  0.
   312  3.1100  0.  0.
   313  3.1200  0.  0.
   314  3.1300  0.  0.
   315  3.1400  0.  0.
   316  3.1500  0.  0.
   317  3.1600  0.  0.
   318  3.1700  0.  0.
   319  3.1800  0.  0.
   320  3.1900  0.  0.
   321  3.2000  0.  0.
   322  3.2100  0.  0.
   323  3.2200  0.  0.
   324  3.2300  0.  0.
   325  3.2400  0.  0.
   326  3.2500  0.  0.
   327  3.2600  0.  0.
   328  3.2700  0.  0.
   329  3.2800  0.  0.
   330  3.2900  0.  0.
   331  3.3000  0.  0.
   332  3.3100  0.  0.
   333  3.3200  0.  0.
   334  3.3300  0.  0.
   335  3.3400  0.  0.
   336  3.3500  0.  0.
   337  3.3600  0.  0.
   338  3.3700  0.  0.
   339  3.3800  0.  0.
   340  3.3900  0.  0.
   341  3.4000  0.  0.
   342  3.4100  0.  0.
   343  3.4200  0.  0.
   344  3.4300  0.  0.
   345  3.4400  0.  0.
   346  3.4500  0.  0.
   347  3.4600  0.  0.
   348  3.4700  0.  0.
   349  3.4800  0.  0.
   350  3.4900  0.  0.
   351  3.5000  0.  0.
   352  3.5100  0.  0.
   353  3.5200  0.  0.
   354  3.5300  0.  0.
   355  3.5400  0.  0.
   356  3.5500  0.  0.
   357  3.5600  0.  0.
   358  3.5700  0.  0.
   359  3.5800  0.  0.
   360  3.5900  0.  0.
   361  3.6000  0.  0.
   362  3.6100  0.  0.
   363  3.6200  0.  0.
   364  3.6300  0.  0.
   365  3.6400  0.  0.
   366  3.6500  0.  0.
   367  3.6600  0.  0.
   368  3.6700  0.  0.
   369  3.6800  0.  0.
   370  3.6900  0.  0.
   371  3.7000  0.  0.
   372  3.7100  0.  0.
   373  3.7200  0.  0.
   374  3.7300  0.  0.
   375  3.7400  0.  0.
   376  3.7500  0.  0.
   377  3.7600  0.  0.
   378  3.7700  0.  0.
   379  3.7800  0.  0.
   380  3.7900  0.  0.
   381  3.8000  0.  0.
   382  3.8100  0.  0.
   383  3.8200  0.  0.
   384  3.8300  0.  0.
   385  3.8400  0.  0.
   386  3.8500  0.  0.
   387  3.8600  0.  0.
   388  3.8700  0.  0.
   389  3.8800  0.  0.
   390  3.8900  0.  0.
   391  3.9000  0.  0.
   392  3.9100  0.  0.
   393  3.9200  0.  0.
   394  3.9300  0.  0.
   395  3.9400  0.  0.
   396  3.9500  0.  0.
   397  3.9600  0.  0.
   398  3.9700  0.  0.
   399  3.9800  0.  0.
   400  3.9900  0.  0.
   401  4.0000  0.  0.
   402  4.0100  0.  0.
   403  4.0200  0.  0.
   404  4.0300  0.  0.
   405  4.0400  0.  0.
   406  4.0500  0.  0.
   407  4.0600  0.  0.
   408  4.0700  0.  0.
   409  4.0800  0.  0.
   410  4.0900  0.  0.
   411  4.1000  0.  0.
   412  4.1100  0.  0.
   413  4.1200  0.  0.
   414  4.1300  0.  0.
   415  4.1400  0.  0.
   416  4.1500  0.  0.
   417  4.1600  0.  0.
   418  4.1700  0.  0.
   419  4.1800  0.  0.
   420  4.1900  0.  0.
   421  4.2000  0.  0.
   422  4.2100  0.  0.
   423  4.2200  0.  0.
   424  4.2300  0.  0.
   425  4.2400  0.  0.
   426  4.2500  0.  0.
   427  4.2600  0.  0.
   428  4.2700  0.  0.
   429  4.2800  0.  0.
   430  4.2900  0.  0.
   431  4.3000  0.  0.
   432  4.3100  0.  0.
   433  4.3200  0.  0.
   434  4.3300  0.  0.
   435  4.3400  0.  0.
   436  4.3500  0.  0.
   437  4.3600  0.  0.
   438  4.3700  0.  0.
   439  4.3800  0.  0.
   440  4.3900  0.  0.
   441  4.4000  0.  0.
   442  4.4100  0.  0.
   443  4.4200  0.  0.
   444  4.4300  0.  0.
   445  4.4400  0.  0.
   446  4.4500  0.  0.
   447  4.4600  0.  0.
   448  4.4700  0.  0.
   449  4.4800  0.  0.
   450  4.4900  0.  0.
   451  4.5000  0.  0.
   452  4.5100  0.  0.
   453  4.5200  0.  0.
   454  4.5300  0.  0.
   455  4.5400  0.  0.
   456  4.5500  0.  0.
   457  4.5600  0.  0.
   458  4.5700  0.  0.
   459  4.5800  0.  0.
   460  4.5900  0.  0.
   461  4.6000  0.  0.
   462  4.6100  0.  0.
   463  4.6200  0.  0.
   464  4.6300  0.  0.
   465  4.6400  0.  0.
   466  4.6500  0.  0.
   467  4.6600  0.  0.
   468  4.6700  0.  0.
   469  4.6800  0.  0.
   470  4.6900  0.  0.
   471  4.7000  0.  0.
   472  4.7100  0.  0.
   473  4.7200  0.  0.
   474  4.7300  0.  0.
   475  4.7400  0.  0.
   476  4.7500  0.  0.
   477  4.7600  0.  0.
   478  4.7700  0.  0.
   479  4.7800  0.  0.
   480  4.7900  0.  0.
   481  4.8000  0.  0.
   482  4.8100  0.  0.
   483  4.8200  0.  0.
   484  4.8300  0.  0.
   485  4.8400  0.  0.
   486  4.8500  0.  0.
   487  4.8600  0.  0.
   488  4.8700  0.  0.
   489  4.8800  0.  0.
   490  4.8900  0.  0.
   491  4.9000  0.  0.
   492  4.9100  0.  0.
   493  4.9200  0.  0.
   494  4.9300  0.  0.
   495  4.9400  0.  0.
   496  4.9500  0.  0.
   497  4.9600  0.  0.
   498  4.9700  0.  0.
   499  4.9800  0.  0.
   500  4.9900  0.  0.
   501  5.0000  0.  0.
   502  5.0100  0.  0.
   503  5.0200  0.  0.
   504  5.0300  0.  0.
   505  5.0400  0.  0.
   506  5.0500  0.  0.
   507  5.0600  0.  0.
   508  5.0700  0.  0.
   509  5.0800  0.  0.
   510  5.0900  0.  0.
   511  5.1000  0.  0.
   512  5.1100  0.  0.
   513  5.1200  0.  0.
   514  5.1300  0.  0.
   515  5.1400  0.  0.
   516  5.1500  0.  0.
   517  5.1600  0.  0.
   518  5.1700  0.  0.
   519  5.1800  0.  0.
   520  5.1900  0.  0.
   521  5.2000  0.  0.
   522  5.2100  0.  0.
   523  5.2200  0.  0.
   524  5.2300  0.  0.
   525  5.2400  0.  0.
   526  5.2500  0.  0.
   527  5.2600  0.  0.
   528  5.2700  0.  0.
   529  5.2800  0.  0.
   530  5.2900  0.  0.
   531  5.3000  0.  0.
   532  5.3100  0.  0.
   533  5.3200  0.  0.
   534  5.3300  0.  0.
   535  5.3400  0.  0.
   536  5.3500  0.  0.
   537  5.3600  0.  0.
   538  5.3700  0.  0.
   539  5.3800  0.  0.
   540  5.3900  0.  0.
   541  5.4000  0.  0.
   542  5.4100  0.  0.
   543  5.4200  0.  0.
   544  5.4300  0.  0.
   545  5.4400  0.  0.
   546  5.4500  0.  0.
   547  5.4600  0.  0.
   548  5.4700  0.  0.
   549  5.4800  0.  0.
   550  5.4900  0.  0.
   551  5.5000  0.  0.
   552  5.5100  0.  0.
   553  5.5200  0.  0.
   554  5.5300  0.  0.
   555  5.5400  0.  0.
   556  5.5500  0.  0.
   557  5.5600  0.  0.
   558  5.5700  0.  0.
   559  5.5800  0.  0.
   560  5.5900  0.  0.
   561  5.6000  0.  0.
   562  5.6100  0.  0.
   563  5.6200  0.  0.
   564  5.6300  0.  0.
   565  5.6400  0.  0.
   566  5.6500  0.  0.
   567  5.6600  0.  0.
   568  5.6700  0.  0.
   569  5.6800  0.  0.
   570  5.6900  0.  0.
   571  5.7000  0.  0.
   572  5.7100  0.  0.
   573  5.7200  0.  0.
   574  5.7300  0.  0.
   575  5.7400  0.  0.
   576  5.7500  0.  0.
   577  5.7600  0.  0.
   578  5.7700  0.  0.
   579  5.7800  0.  0.
   580  5.7900  0.  0.
   581  5.8000  0.  0.
   582  5.8100  0.  0.
   583  5.8200  0.  0.
   584  5.8300  0.  0.
   585  5.8400  0.  0.
   586  5.8500  0.  0.
   587  5.8600  0.  0.
   588  5.8700  0.  0.
   589  5.8800  0.  0.
   590  5.8900  0.  0.
   591  5.9000  0.  0.
   592  5.9100  0.  0.
   593  5.9200  0.  0.
   594  5.9300  0.  0.
   595  5.9400  0.  0.
   596  5.9500  0.  0.
   597  5.9600  0.  0.
   598  5.9700  0.  0.
   599  5.9800  0.  0.
   600  5.9900  0.  0.
   1                         1.3428066138577E+00  1.4633199190428E-01
     1  0.0000000000000E+00 -2.8780658412053E-12  3.6210465181874E-11
     2  1.0000000000000E-02  5.9984645886580E-04 -1.9721395773848E-04
     3  2.0000000000000E-02  2.3983658624359E-03 -7.8851387968843E-04
     4  3.0000000000000E-02  5.3924995440234E-03 -1.7728722334349E-03
     5  4.0000000000000E-02  9.5771539023138E-03 -3.1485708893869E-03
     6  5.0000000000000E-02  1.4945206671969E-02 -4.9131928246529E-03
     7  6.0000000000000E-02  2.1487515714155E-02 -7.0636106426832E-03
     8  7.0000000000000E-02  2.9192930338459E-02 -9.5959720418467E-03
     9  8.0000000000000E-02  3.8048305170534E-02 -1.2505682402324E-02
    10  9.0000000000000E-02  4.8038516582554E-02 -1.5787384696112E-02
    11  1.0000000000000E-01  5.9146481705968E-02 -1.9434936959050E-02
    12  1.1000000000000E-01  7.1353180048013E-02 -2.3441387595452E-02
    13  1.2000000000000E-01  8.4637677735161E-02 -2.7798948816624E-02
    14  1.3000000000000E-01  9.8977154407886E-02 -3.2498968542815E-02
    15  1.4000000000000E-01  1.1434693279181E-01 -3.7531901123686E-02
    16  1.5000000000000E-01  1.3072051097056E-01 -4.2887277256260E-02
    17  1.6000000000000E-01  1.4806959738537E-01 -4.8553673499831E-02
    18  1.7000000000000E-01  1.6636414858541E-01 -5.4518681805162E-02
    19  1.8000000000000E-01  1.8557240975147E-01 -6.0768879490565E-02