Sr    ONCVPSP-4.0.1  r_core=   2.50198   2.32867   2.50198
     38.0000     10.0000      220120    zatom,zion,pspd
     8      11   2     4   600     0    pspcod,pspxc,lmax,lloc,mmax,r2well
  5.99000000  6.00000000  0.00000000    rchrg fchrg qchrg
     2     2     2     0     0    nproj
     1     1           extension_switch
   0                         3.0845616248104E+00  4.5674262383567E-01
     1  0.0000000000000E+00 -1.3825718347960E-11  3.5562913724974E-11
     2  1.0000000000000E-02  3.9913265613693E-02 -8.9166864977141E-03
     3  2.0000000000000E-02  7.9785467025869E-02 -1.7799459126117E-02
     4  3.0000000000000E-02  1.1957561556550E-01 -2.6614531919147E-02
     5  4.0000000000000E-02  1.5924287322339E-01 -3.5328373744721E-02
     6  5.0000000000000E-02  1.9874662698875E-01 -4.3907833299503E-02
     7  6.0000000000000E-02  2.3804656200248E-01 -5.2320261222432E-02
     8  7.0000000000000E-02  2.7710273314903E-01 -6.0533628408662E-02
     9  8.0000000000000E-02  3.1587563472259E-01 -6.8516639641165E-02
    10  9.0000000000000E-02  3.5432626782041E-01 -7.6238841701052E-02
    11  1.0000000000000E-01  3.9241620513610E-01 -8.3670725169361E-02
    12  1.1000000000000E-01  4.3010765284869E-01 -9.0783819192097E-02
    13  1.2000000000000E-01  4.6736350932898E-01 -9.7550778546161E-02
    14  1.3000000000000E-01  5.0414742041237E-01 -1.0394546241582E-01
    15  1.4000000000000E-01  5.4042383101797E-01 -1.0994300436700E-01
    16  1.5000000000000E-01  5.7615803292548E-01 -1.1551987308888E-01
    17  1.6000000000000E-01  6.1131620855490E-01 -1.2065392355878E-01
    18  1.7000000000000E-01  6.4586547062915E-01 -1.2532443837566E-01
    19  1.8000000000000E-01  6.7977389763526E-01 -1.2951215909959E-01
    20  1.9000000000000E-01  7.1301056503607E-01 -1.3319930752779E-01
    21  2.0000000000000E-01  7.4554557222101E-01 -1.3636959693173E-01
    22  2.1000000000000E-01  7.7735006522099E-01 -1.3900823337364E-01
    23  2.2000000000000E-01  8.0839625524820E-01 -1.4110190731277E-01
    24  2.3000000000000E-01  8.3865743315710E-01 -1.4263877580262E-01
    25  2.4000000000000E-01  8.6810797995663E-01 -1.4360843566725E-01
    26  2.5000000000000E-01  8.9672337353644E-01 -1.4400188812887E-01
    27  2.6000000000000E-01  9.2448019180072E-01 -1.4381149543758E-01
    28  2.7000000000000E-01  9.5135611243195E-01 -1.4303093012815E-01
    29  2.8000000000000E-01  9.7732990953319E-01 -1.4165511759599E-01
    30  2.9000000000000E-01  1.0023814474216E+00 -1.3968017274589E-01
    31  3.0000000000000E-01  1.0264916718668E+00 -1.3710333152007E-01
    32  3.1000000000000E-01  1.0496425990847E+00 -1.3392287815842E-01
    33  3.2000000000000E-01  1.0718173028149E+00 -1.3013806908082E-01
    34  3.3000000000000E-01  1.0929998998169E+00 -1.2574905431027E-01
    35  3.4000000000000E-01  1.1131755341323E+00 -1.2075679737546E-01
    36  3.5000000000000E-01  1.1323303604624E+00 -1.1516299464158E-01
    37  3.6000000000000E-01  1.1504515270112E+00 -1.0896999501965E-01
    38  3.7000000000000E-01  1.1675271581428E+00 -1.0218072099625E-01
    39  3.8000000000000E-01  1.1835463371923E+00 -9.4798591907907E-02
    40  3.9000000000000E-01  1.1984990897642E+00 -8.6827450357754E-02
    41  4.0000000000000E-01  1.2123763678329E+00 -7.8271492636019E-02
    42  4.1000000000000E-01  1.2251700349484E+00 -6.9135203961702E-02
    43  4.2000000000000E-01  1.2368728528266E+00 -5.9423299309599E-02
    44  4.3000000000000E-01  1.2474784695827E+00 -4.9140670526530E-02
    45  4.4000000000000E-01  1.2569814098381E+00 -3.8292340372407E-02
    46  4.5000000000000E-01  1.2653770669062E+00 -2.6883424047334E-02
    47  4.6000000000000E-01  1.2726616972272E+00 -1.4919098685028E-02
    48  4.7000000000000E-01  1.2788324171941E+00 -2.4045812072700E-03
    49  4.8000000000000E-01  1.2838872024734E+00  1.0654885156582E-02
    50  4.9000000000000E-01  1.2878248898912E+00  2.4254035474751E-02
    51  5.0000000000000E-01  1.2906451819171E+00  3.8387578729497E-02
    52  5.1000000000000E-01  1.2923486537415E+00  5.3050184429966E-02
    53  5.2000000000000E-01  1.2929367629027E+00  6.8236460306111E-02
    54  5.3000000000000E-01  1.2924118613853E+00  8.3940921267560E-02
    55  5.4000000000000E-01  1.2907772100702E+00  1.0015794991006E-01
    56  5.5000000000000E-01  1.2880369953839E+00  1.1688174894833E-01
    57  5.6000000000000E-01  1.2841963479561E+00  1.3410628604773E-01
    58  5.7000000000000E-01  1.2792613630640E+00  1.5182523161728E-01
    59  5.8000000000000E-01  1.2732391226057E+00  1.7003189021106E-01
    60  5.9000000000000E-01  1.2661377183200E+00  1.8871912626513E-01
    61  6.0000000000000E-01  1.2579662759387E+00  2.0787928497009E-01
    62  6.1000000000000E-01  1.2487349799345E+00  2.2750410914524E-01
    63  6.2000000000000E-01  1.2384550985081E+00  2.4758465303928E-01
    64  6.3000000000000E-01  1.2271390084353E+00  2.6811119403170E-01
    65  6.4000000000000E-01  1.2148002193855E+00  2.8907314325051E-01
    66  6.5000000000000E-01  1.2014533973082E+00  3.1045895615337E-01
    67  6.6000000000000E-01  1.1871143864800E+00  3.3225604414083E-01
    68  6.7000000000000E-01  1.1718002297975E+00  3.5445068828235E-01
    69  6.8000000000000E-01  1.1555291869079E+00  3.7702795623689E-01
    70  6.9000000000000E-01  1.1383207497684E+00  3.9997162344118E-01
    71  7.0000000000000E-01  1.1201956552385E+00  4.2326409961897E-01
    72  7.1000000000000E-01  1.1011758943209E+00  4.4688636163527E-01
    73  7.2000000000000E-01  1.0812847176827E+00  4.7081789367928E-01
    74  7.3000000000000E-01  1.0605466371121E+00  4.9503663571044E-01
    75  7.4000000000000E-01  1.0389874225872E+00  5.1951894104220E-01
    76  7.5000000000000E-01  1.0166340946644E+00  5.4423954387037E-01
    77  7.6000000000000E-01  9.9351491192268E-01  5.6917153747586E-01
    78  7.7000000000000E-01  9.6965935323713E-01  5.9428636374697E-01
    79  7.8000000000000E-01  9.4509809468965E-01  6.1955381457458E-01
    80  7.9000000000000E-01  9.1986298096646E-01  6.4494204557589E-01
    81  8.0000000000000E-01  8.9398699113254E-01  6.7041760249774E-01
    82  8.1000000000000E-01  8.6750419871736E-01  6.9594546054338E-01
    83  8.2000000000000E-01  8.4044972609094E-01  7.2148907675360E-01
    84  8.3000000000000E-01  8.1285969315517E-01  7.4701045545918E-01
    85  8.4000000000000E-01  7.8477116042217E-01  7.7247022670497E-01
    86  8.5000000000000E-01  7.5622206659796E-01  7.9782773742914E-01
    87  8.6000000000000E-01  7.2725116083633E-01  8.2304115506492E-01
    88  8.7000000000000E-01  6.9789792987379E-01  8.4806758311678E-01
    89  8.8000000000000E-01  6.6820252030120E-01  8.7286318815146E-01
    90  8.9000000000000E-01  6.3820565627093E-01  8.9738333753506E-01
    91  9.0000000000000E-01  6.0794855298019E-01  9.2158274714380E-01
    92  9.1000000000000E-01  5.7747282631007E-01  9.4541563817773E-01
    93  9.2000000000000E-01  5.4682039903654E-01  9.6883590211497E-01
    94  9.3000000000000E-01  5.1603340406320E-01  9.9179727276008E-01
    95  9.4000000000000E-01  4.8515408515596E-01  1.0142535042643E+00
    96  9.5000000000000E-01  4.5422469568622E-01  1.0361585539288E+00
    97  9.6000000000000E-01  4.2328739591225E-01  1.0574667685444E+00
    98  9.7000000000000E-01  3.9238414934676E-01  1.0781330729769E+00
    99  9.8000000000000E-01  3.6155661877326E-01  1.0981131596683E+00
   100  9.9000000000000E-01  3.3084606248345E-01  1.1173636777032E+00
   101  1.0000000000000E+00  3.0029323131330E-01  1.1358424200740E+00
   102  1.0100000000000E+00  2.6993826705581E-01  1.1535085077805E+00
   103  1.0200000000000E+00  2.3982060282437E-01  1.1703225694082E+00
   104  1.0300000000000E+00  2.0997886593175E-01  1.1862469148547E+00
   105  1.0400000000000E+00  1.8045078383574E-01  1.2012457019068E+00
   106  1.0500000000000E+00  1.5127309368491E-01  1.2152850944183E+00
   107  1.0600000000000E+00  1.2248145597427E-01  1.2283334108965E+00
   108  1.0700000000000E+00  9.4110372794437E-02  1.2403612623735E+00
   109  1.0800000000000E+00  6.6193111126131E-02  1.2513416785180E+00
   110  1.0900000000000E+00  3.8761631596998E-02  1.2612502210311E+00
   111  1.1000000000000E+00  1.1846523079161E-02  1.2700650834677E+00
   112  1.1100000000000E+00 -1.4523056536182E-02  1.2777671767323E+00
   113  1.1200000000000E+00 -4.0319433095399E-02  1.2843401996072E+00
   114  1.1300000000000E+00 -6.5516462226209E-02  1.2897706937958E+00
   115  1.1400000000000E+00 -9.0089568473778E-02  1.2940480830830E+00
   116  1.1500000000000E+00 -1.1401577738578E-01  1.2971646963474E+00
   117  1.1600000000000E+00 -1.3727374045536E-01  1.2991157742897E+00
   118  1.1700000000000E+00 -1.5984375288445E-01  1.2998994598758E+00
   119  1.1800000000000E+00 -1.8170776418350E-01  1.2995167726285E+00
   120  1.1900000000000E+00 -2.0284938167720E-01  1.2979715670334E+00
   121  1.2000000000000E+00 -2.2325386703887E-01  1.2952704754590E+00
   122  1.2100000000000E+00 -2.4290812602805E-01  1.2914228361188E+00
   123  1.2200000000000E+00 -2.6180069165614E-01  1.2864406067280E+00
   124  1.2300000000000E+00 -2.7992170105345E-01  1.2803382646282E+00
   125  1.2400000000000E+00 -2.9726286635701E-01  1.2731326942663E+00
   126  1.2500000000000E+00 -3.1381743998138E-01  1.2648430630183E+00
   127  1.2600000000000E+00 -3.2958017467508E-01  1.2554906864489E+00
   128  1.2700000000000E+00 -3.4454727880094E-01  1.2450988841829E+00
   129  1.2800000000000E+00 -3.5871636731168E-01  1.2336928276432E+00
   130  1.2900000000000E+00 -3.7208640891956E-01  1.2212993809769E+00
   131  1.3000000000000E+00 -3.8465766998286E-01  1.2079469365462E+00
   132  1.3100000000000E+00 -3.9643165565076E-01  1.1936652464014E+00
   133  1.3200000000000E+00 -4.0741104882203E-01  1.1784852511855E+00
   134  1.3300000000000E+00 -4.1759964748178E-01  1.1624389079355E+00
   135  1.3400000000000E+00 -4.2700230098437E-01  1.1455590182477E+00
   136  1.3500000000000E+00 -4.3562484584883E-01  1.1278790582669E+00
   137  1.3600000000000E+00 -4.4347404162657E-01  1.1094330119328E+00
   138  1.3700000000000E+00 -4.5055750738918E-01  1.0902552088822E+00
   139  1.3800000000000E+00 -4.5688365936713E-01  1.0703801683540E+00
   140  1.3900000000000E+00 -4.6246165024829E-01  1.0498424503833E+00
   141  1.4000000000000E+00 -4.6730131061844E-01  1.0286765154939E+00
   142  1.4100000000000E+00 -4.7141309299497E-01  1.0069165940139E+00
   143  1.4200000000000E+00 -4.7480801886914E-01  9.8459656604031E-01
   144  1.4300000000000E+00 -4.7749762913343E-01  9.6174985297327E-01
   145  1.4400000000000E+00 -4.7949393822717E-01  9.3840932142169E-01
   146  1.4500000000000E+00 -4.8080939228777E-01  9.1460720015994E-01
   147  1.4600000000000E+00 -4.8145683154584E-01  8.9037501068225E-01
   148  1.4700000000000E+00 -4.8144945715151E-01  8.6574351176495E-01
   149  1.4800000000000E+00 -4.8080080256594E-01  8.4074265830452E-01
   150  1.4900000000000E+00 -4.7952470959807E-01  8.1540157455452E-01
   151  1.5000000000000E+00 -4.7763530911090E-01  7.8974854173726E-01
   152  1.5100000000000E+00 -4.7514700636655E-01  7.6381099985790E-01
   153  1.5200000000000E+00 -4.7207447092364E-01  7.3761556340215E-01
   154  1.5300000000000E+00 -4.6843263094624E-01  7.1118805045364E-01
   155  1.5400000000000E+00 -4.6423667172993E-01  6.8455352462503E-01
   156  1.5500000000000E+00 -4.5950203819927E-01  6.5773634906099E-01
   157  1.5600000000000E+00 -4.5424444108142E-01  6.3076025163981E-01
   158  1.5700000000000E+00 -4.4847986641417E-01  6.0364840037760E-01
   159  1.5800000000000E+00 -4.4222458800332E-01  5.7642348792388E-01
   160  1.5900000000000E+00 -4.3549518240459E-01  5.4910782393287E-01
   161  1.6000000000000E+00 -4.2830854596963E-01  5.2172343399965E-01
   162  1.6100000000000E+00 -4.2068191346443E-01  4.9429216376829E-01
   163  1.6200000000000E+00 -4.1263287774212E-01  4.6683578674899E-01
   164  1.6300000000000E+00 -4.0417940993056E-01  4.3937611432383E-01
   165  1.6400000000000E+00 -3.9533987957902E-01  4.1193510637853E-01
   166  1.6500000000000E+00 -3.8613307419782E-01  3.8453498096883E-01
   167  1.6600000000000E+00 -3.7657821761954E-01  3.5719832141665E-01
   168  1.6700000000000E+00 -3.6669498661126E-01  3.2994817923243E-01
   169  1.6800000000000E+00 -3.5650352517386E-01  3.0280817127712E-01
   170  1.6900000000000E+00 -3.4602445597665E-01  2.7580256960902E-01
   171  1.7000000000000E+00 -3.3527888839358E-01  2.4895638250739E-01
   172  1.7100000000000E+00 -3.2428842263083E-01  2.2229542522665E-01
   173  1.7200000000000E+00 -3.1307514946476E-01  1.9584637911100E-01
   174  1.7300000000000E+00 -3.0166164514324E-01  1.6963683778859E-01
   175  1.7400000000000E+00 -2.9007096104254E-01  1.4369533926757E-01
   176  1.7500000000000E+00 -2.7832660771602E-01  1.1805138287092E-01
   177  1.7600000000000E+00 -2.6645253301837E-01  9.2735430073447E-02
   178  1.7700000000000E+00 -2.5447309404161E-01  6.7778888440624E-02
   179  1.7800000000000E+00 -2.4241302265393E-01  4.3214078014726E-02
   180  1.7900000000000E+00 -2.3029738449088E-01  1.9074179646889E-02
   181  1.8000000000000E+00 -2.1815153130898E-01 -4.6068350661290E-03
   182  1.8100000000000E+00 -2.0600104667465E-01 -2.7794292416306E-02
   183  1.8200000000000E+00 -1.9387168502457E-01 -5.0452923797763E-02
   184  1.8300000000000E+00 -1.8178930419896E-01 -7.2546991335024E-02
   185  1.8400000000000E+00 -1.6977979161362E-01 -9.4040431590591E-02
   186  1.8500000000000E+00 -1.5786898430110E-01 -1.1489701684558E-01
   187  1.8600000000000E+00 -1.4608258311463E-01 -1.3508053327822E-01
   188  1.8700000000000E+00 -1.3444606145038E-01 -1.5455497520071E-01
   189  1.8800000000000E+00 -1.2298456890288E-01 -1.7328475435553E-01
   190  1.8900000000000E+00 -1.1172283032569E-01 -1.9123492311984E-01
   191  1.9000000000000E+00 -1.0068504082241E-01 -2.0837141032303E-01
   192  1.9100000000000E+00 -8.9894757243259E-02 -2.2466126824766E-01
   193  1.9200000000000E+00 -7.9374786807923E-02 -2.4007292925995E-01
   194  1.9300000000000E+00 -6.9147073514945E-02 -2.5457647040778E-01
   195  1.9400000000000E+00 -5.9232583035115E-02 -2.6814388422144E-01
   196  1.9500000000000E+00 -4.9651186814794E-02 -2.8074935387225E-01
   197  1.9600000000000E+00 -4.0421546139715E-02 -2.9236953077397E-01
   198  1.9700000000000E+00 -3.1560996927491E-02 -3.0298381265925E-01
   199  1.9800000000000E+00 -2.3085436028627E-02 -3.1257462012683E-01
   200  1.9900000000000E+00 -1.5009209722306E-02 -3.2112766995546E-01
   201  2.0000000000000E+00 -7.3450051132217E-03 -3.2863224337156E-01
   202  2.0100000000000E+00 -1.0375162298906E-04 -3.3508142661116E-01
   203  2.0200000000000E+00  6.7055035229385E-03 -3.4047244114853E-01
   204  2.0300000000000E+00  1.3075574265076E-02 -3.4480650629126E-01
   205  2.0400000000000E+00  1.9000939374189E-02 -3.4808814904376E-01
   206  2.0500000000000E+00  2.4477577345792E-02 -3.5032464615756E-01
   207  2.0600000000000E+00  2.9503019781929E-02 -3.5152619321488E-01
   208  2.0700000000000E+00  3.4076388838485E-02 -3.5170602828835E-01
   209  2.0800000000000E+00  3.8198427400887E-02 -3.5088053859974E-01
   210  2.0900000000000E+00  4.1871520718911E-02 -3.4906934652298E-01
   211  2.1000000000000E+00  4.5099709316994E-02 -3.4629537445788E-01
   212  2.1100000000000E+00  4.7888692393380E-02 -3.4258488617436E-01
   213  2.1200000000000E+00  5.0245821511331E-02 -3.3796750410519E-01
   214  2.1300000000000E+00  5.2180084364911E-02 -3.3247620193848E-01
   215  2.1400000000000E+00  5.3702078470193E-02 -3.2614727203406E-01
   216  2.1500000000000E+00  5.4823974717238E-02 -3.1902026740495E-01
   217  2.1600000000000E+00  5.5559470798403E-02 -3.1113791821326E-01
   218  2.1700000000000E+00  5.5923734591461E-02 -3.0254602287926E-01
   219  2.1800000000000E+00  5.5933337679609E-02 -2.9329331417946E-01
   220  2.1900000000000E+00  5.5606179255564E-02 -2.8343130087066E-01
   221  2.2000000000000E+00  5.4961400734245E-02 -2.7301408557133E-01
   222  2.2100000000000E+00  5.4019291483113E-02 -2.6209815985896E-01
   223  2.2200000000000E+00  5.2801186145828E-02 -2.5074217770060E-01
   224  2.2300000000000E+00  5.1329354103728E-02 -2.3900670851681E-01
   225  2.2400000000000E+00  4.9626881697410E-02 -2.2695397138001E-01
   226  2.2500000000000E+00  4.7717547879518E-02 -2.1464755197390E-01
   227  2.2600000000000E+00  4.5625694033463E-02 -2.0215210409965E-01
   228  2.2700000000000E+00  4.3376088743220E-02 -1.8953303765028E-01
   229  2.2800000000000E+00  4.0993788353648E-02 -1.7685619511631E-01
   230  2.2900000000000E+00  3.8503994177387E-02 -1.6418751872305E-01
   231  2.3000000000000E+00  3.5931907268965E-02 -1.5159271047609E-01
   232  2.3100000000000E+00  3.3302581690537E-02 -1.3913688739803E-01
   233  2.3200000000000E+00  3.0640777214672E-02 -1.2688423429591E-01
   234  2.3300000000000E+00  2.7970812744328E-02 -1.1489765728190E-01
   235  2.3400000000000E+00  2.5316419948745E-02 -1.0323843659456E-01
   236  2.3500000000000E+00  2.2700595592206E-02 -9.1965874754030E-02
   237  2.3600000000000E+00  2.0145484361309E-02 -8.1137021738506E-02
   238  2.3700000000000E+00  1.7672206576219E-02 -7.0806259256285E-02
   239  2.3800000000000E+00  1.5300609834874E-02 -6.1024676444398E-02
   240  2.3900000000000E+00  1.3048633266750E-02 -5.1838408236231E-02
   241  2.4000000000000E+00  1.0933381655883E-02 -4.3291484920806E-02
   242  2.4100000000000E+00  8.9712186278945E-03 -3.5426118749830E-02
   243  2.4200000000000E+00  7.1767136252199E-03 -2.8279990752291E-02
   244  2.4300000000000E+00  5.5627248746938E-03 -2.1886477764734E-02
   245  2.4400000000000E+00  4.1403032691406E-03 -1.6274414016442E-02
   246  2.4500000000000E+00  2.9186212023369E-03 -1.1467917381845E-02
   247  2.4600000000000E+00  1.9051685441456E-03 -7.4872625903779E-03
   248  2.4700000000000E+00  1.1046991414556E-03 -4.3447621559403E-03
   249  2.4800000000000E+00  5.1707280393282E-04 -2.0362934055431E-03
   250  2.4900000000000E+00  1.5876921075450E-04 -6.2650084049683E-04
   251  2.5000000000000E+00  1.1189421375805E-05 -4.4278832187703E-05
   252  2.5100000000000E+00 -1.0607148437831E-05  4.1974414357597E-05
   253  2.5200000000000E+00  2.4529902201267E-06 -9.6885076418182E-06
   254  2.5300  0. -0.
   255  2.5400 -0.  0.
   256  2.5500  0. -0.
   257  2.5600  0. -0.
   258  2.5700  0.  0.
   259  2.5800  0.  0.
   260  2.5900  0.  0.
   261  2.6000  0.  0.
   262  2.6100  0.  0.
   263  2.6200  0.  0.
   264  2.6300  0.  0.
   265  2.6400  0.  0.
   266  2.6500  0.  0.
   267  2.6600  0.  0.
   268  2.6700  0.  0.
   269  2.6800  0.  0.
   270  2.6900  0.  0.
   271  2.7000  0.  0.
   272  2.7100  0.  0.
   273  2.7200  0.  0.
   274  2.7300  0.  0.
   275  2.7400  0.  0.
   276  2.7500  0.  0.
   277  2.7600  0.  0.
   278  2.7700  0.  0.
   279  2.7800  0.  0.
   280  2.7900  0.  0.
   281  2.8000  0.  0.
   282  2.8100  0.  0.
   283  2.8200  0.  0.
   284  2.8300  0.  0.
   285  2.8400  0.  0.
   286  2.8500  0.  0.
   287  2.8600  0.  0.
   288  2.8700  0.  0.
   289  2.8800  0.  0.
   290  2.8900  0.  0.
   291  2.9000  0.  0.
   292  2.9100  0.  0.
   293  2.9200  0.  0.
   294  2.9300  0.  0.
   295  2.9400  0.  0.
   296  2.9500  0.  0.
   297  2.9600  0.  0.
   298  2.9700  0.  0.
   299  2.9800  0.  0.
   300  2.9900  0.  0.
   301  3.0000  0.  0.
   302  3.0100  0.  0.
   303  3.0200  0.  0.
   304  3.0300  0.  0.
   305  3.0400  0.  0.
   306  3.0500  0.  0.
   307  3.0600  0.  0.
   308  3.0700  0.  0.
   309  3.0800  0.  0.
   310  3.0900  0.  0.
   311  3.1000  0.  0.
   312  3.1100  0.  0.
   313  3.1200  0.  0.
   314  3.1300  0.  0.
   315  3.1400  0.  0.
   316  3.1500  0.  0.
   317  3.1600  0.  0.
   318  3.1700  0.  0.
   319  3.1800  0.  0.
   320  3.1900  0.  0.
   321  3.2000  0.  0.
   322  3.2100  0.  0.
   323  3.2200  0.  0.
   324  3.2300  0.  0.
   325  3.2400  0.  0.
   326  3.2500  0.  0.
   327  3.2600  0.  0.
   328  3.2700  0.  0.
   329  3.2800  0.  0.
   330  3.2900  0.  0.
   331  3.3000  0.  0.
   332  3.3100  0.  0.
   333  3.3200  0.  0.
   334  3.3300  0.  0.
   335  3.3400  0.  0.
   336  3.3500  0.  0.
   337  3.3600  0.  0.
   338  3.3700  0.  0.
   339  3.3800  0.  0.
   340  3.3900  0.  0.
   341  3.4000  0.  0.
   342  3.4100  0.  0.
   343  3.4200  0.  0.
   344  3.4300  0.  0.
   345  3.4400  0.  0.
   346  3.4500  0.  0.
   347  3.4600  0.  0.
   348  3.4700  0.  0.
   349  3.4800  0.  0.
   350  3.4900  0.  0.
   351  3.5000  0.  0.
   352  3.5100  0.  0.
   353  3.5200  0.  0.
   354  3.5300  0.  0.
   355  3.5400  0.  0.
   356  3.5500  0.  0.
   357  3.5600  0.  0.
   358  3.5700  0.  0.
   359  3.5800  0.  0.
   360  3.5900  0.  0.
   361  3.6000  0.  0.
   362  3.6100  0.  0.
   363  3.6200  0.  0.
   364  3.6300  0.  0.
   365  3.6400  0.  0.
   366  3.6500  0.  0.
   367  3.6600  0.  0.
   368  3.6700  0.  0.
   369  3.6800  0.  0.
   370  3.6900  0.  0.
   371  3.7000  0.  0.
   372  3.7100  0.  0.
   373  3.7200  0.  0.
   374  3.7300  0.  0.
   375  3.7400  0.  0.
   376  3.7500  0.  0.
   377  3.7600  0.  0.
   378  3.7700  0.  0.
   379  3.7800  0.  0.
   380  3.7900  0.  0.
   381  3.8000  0.  0.
   382  3.8100  0.  0.
   383  3.8200  0.  0.
   384  3.8300  0.  0.
   385  3.8400  0.  0.
   386  3.8500  0.  0.
   387  3.8600  0.  0.
   388  3.8700  0.  0.
   389  3.8800  0.  0.
   390  3.8900  0.  0.
   391  3.9000  0.  0.
   392  3.9100  0.  0.
   393  3.9200  0.  0.
   394  3.9300  0.  0.
   395  3.9400  0.  0.
   396  3.9500  0.  0.
   397  3.9600  0.  0.
   398  3.9700  0.  0.
   399  3.9800  0.  0.
   400  3.9900  0.  0.
   401  4.0000  0.  0.
   402  4.0100  0.  0.
   403  4.0200  0.  0.
   404  4.0300  0.  0.
   405  4.0400  0.  0.
   406  4.0500  0.  0.
   407  4.0600  0.  0.
   408  4.0700  0.  0.
   409  4.0800  0.  0.
   410  4.0900  0.  0.
   411  4.1000  0.  0.
   412  4.1100  0.  0.
   413  4.1200  0.  0.
   414  4.1300  0.  0.
   415  4.1400  0.  0.
   416  4.1500  0.  0.
   417  4.1600  0.  0.
   418  4.1700  0.  0.
   419  4.1800  0.  0.
   420  4.1900  0.  0.
   421  4.2000  0.  0.
   422  4.2100  0.  0.
   423  4.2200  0.  0.
   424  4.2300  0.  0.
   425  4.2400  0.  0.
   426  4.2500  0.  0.
   427  4.2600  0.  0.
   428  4.2700  0.  0.
   429  4.2800  0.  0.
   430  4.2900  0.  0.
   431  4.3000  0.  0.
   432  4.3100  0.  0.
   433  4.3200  0.  0.
   434  4.3300  0.  0.
   435  4.3400  0.  0.
   436  4.3500  0.  0.
   437  4.3600  0.  0.
   438  4.3700  0.  0.
   439  4.3800  0.  0.
   440  4.3900  0.  0.
   441  4.4000  0.  0.
   442  4.4100  0.  0.
   443  4.4200  0.  0.
   444  4.4300  0.  0.
   445  4.4400  0.  0.
   446  4.4500  0.  0.
   447  4.4600  0.  0.
   448  4.4700  0.  0.
   449  4.4800  0.  0.
   450  4.4900  0.  0.
   451  4.5000  0.  0.
   452  4.5100  0.  0.
   453  4.5200  0.  0.
   454  4.5300  0.  0.
   455  4.5400  0.  0.
   456  4.5500  0.  0.
   457  4.5600  0.  0.
   458  4.5700  0.  0.
   459  4.5800  0.  0.
   460  4.5900  0.  0.
   461  4.6000  0.  0.
   462  4.6100  0.  0.
   463  4.6200  0.  0.
   464  4.6300  0.  0.
   465  4.6400  0.  0.
   466  4.6500  0.  0.
   467  4.6600  0.  0.
   468  4.6700  0.  0.
   469  4.6800  0.  0.
   470  4.6900  0.  0.
   471  4.7000  0.  0.
   472  4.7100  0.  0.
   473  4.7200  0.  0.
   474  4.7300  0.  0.
   475  4.7400  0.  0.
   476  4.7500  0.  0.
   477  4.7600  0.  0.
   478  4.7700  0.  0.
   479  4.7800  0.  0.
   480  4.7900  0.  0.
   481  4.8000  0.  0.
   482  4.8100  0.  0.
   483  4.8200  0.  0.
   484  4.8300  0.  0.
   485  4.8400  0.  0.
   486  4.8500  0.  0.
   487  4.8600  0.  0.
   488  4.8700  0.  0.
   489  4.8800  0.  0.
   490  4.8900  0.  0.
   491  4.9000  0.  0.
   492  4.9100  0.  0.
   493  4.9200  0.  0.
   494  4.9300  0.  0.
   495  4.9400  0.  0.
   496  4.9500  0.  0.
   497  4.9600  0.  0.
   498  4.9700  0.  0.
   499  4.9800  0.  0.
   500  4.9900  0.  0.
   501  5.0000  0.  0.
   502  5.0100  0.  0.
   503  5.0200  0.  0.
   504  5.0300  0.  0.
   505  5.0400  0.  0.
   506  5.0500  0.  0.
   507  5.0600  0.  0.
   508  5.0700  0.  0.
   509  5.0800  0.  0.
   510  5.0900  0.  0.
   511  5.1000  0.  0.
   512  5.1100  0.  0.
   513  5.1200  0.  0.
   514  5.1300  0.  0.
   515  5.1400  0.  0.
   516  5.1500  0.  0.
   517  5.1600  0.  0.
   518  5.1700  0.  0.
   519  5.1800  0.  0.
   520  5.1900  0.  0.
   521  5.2000  0.  0.
   522  5.2100  0.  0.
   523  5.2200  0.  0.
   524  5.2300  0.  0.
   525  5.2400  0.  0.
   526  5.2500  0.  0.
   527  5.2600  0.  0.
   528  5.2700  0.  0.
   529  5.2800  0.  0.
   530  5.2900  0.  0.
   531  5.3000  0.  0.
   532  5.3100  0.  0.
   533  5.3200  0.  0.
   534  5.3300  0.  0.
   535  5.3400  0.  0.
   536  5.3500  0.  0.
   537  5.3600  0.  0.
   538  5.3700  0.  0.
   539  5.3800  0.  0.
   540  5.3900  0.  0.
   541  5.4000  0.  0.
   542  5.4100  0.  0.
   543  5.4200  0.  0.
   544  5.4300  0.  0.
   545  5.4400  0.  0.
   546  5.4500  0.  0.
   547  5.4600  0.  0.
   548  5.4700  0.  0.
   549  5.4800  0.  0.
   550  5.4900  0.  0.
   551  5.5000  0.  0.
   552  5.5100  0.  0.
   553  5.5200  0.  0.
   554  5.5300  0.  0.
   555  5.5400  0.  0.
   556  5.5500  0.  0.
   557  5.5600  0.  0.
   558  5.5700  0.  0.
   559  5.5800  0.  0.
   560  5.5900  0.  0.
   561  5.6000  0.  0.
   562  5.6100  0.  0.
   563  5.6200  0.  0.
   564  5.6300  0.  0.
   565  5.6400  0.  0.
   566  5.6500  0.  0.
   567  5.6600  0.  0.
   568  5.6700  0.  0.
   569  5.6800  0.  0.
   570  5.6900  0.  0.
   571  5.7000  0.  0.
   572  5.7100  0.  0.
   573  5.7200  0.  0.
   574  5.7300  0.  0.
   575  5.7400  0.  0.
   576  5.7500  0.  0.
   577  5.7600  0.  0.
   578  5.7700  0.  0.
   579  5.7800  0.  0.
   580  5.7900  0.  0.
   581  5.8000  0.  0.
   582  5.8100  0.  0.
   583  5.8200  0.  0.
   584  5.8300  0.  0.
   585  5.8400  0.  0.
   586  5.8500  0.  0.
   587  5.8600  0.  0.
   588  5.8700  0.  0.
   589  5.8800  0.  0.
   590  5.8900  0.  0.
   591  5.9000  0.  0.
   592  5.9100  0.  0.
   593  5.9200  0.  0.
   594  5.9300  0.  0.
   595  5.9400  0.  0.
   596  5.9500  0.  0.
   597  5.9600  0.  0.
   598  5.9700  0.  0.
   599  5.9800  0.  0.
   600  5.9900  0.  0.
   1                         1.0086164953034E+00 -4.8479132461897E-01
     1  0.0000000000000E+00  4.6225058503158E-11 -3.1841354206086E-10
     2  1.0000000000000E-02  6.2157979107534E-04  4.1878200115382E-04
     3  2.0000000000000E-02  2.4849568265204E-03  1.6751773007127E-03
     4  3.0000000000000E-02  5.5860484657498E-03  3.7693194919122E-03
     5  4.0000000000000E-02  9.9180648587867E-03  6.7013837533717E-03
     6  5.0000000000000E-02  1.5471530686431E-02  1.0471516237879E-02
     7  6.0000000000000E-02  2.2234315424378E-02  1.5079736418762E-02
     8  7.0000000000000E-02  3.0191671960798E-02  2.0525813581854E-02
     9  8.0000000000000E-02  3.9326283350655E-02  2.6809118969464E-02
    10  9.0000000000000E-02  4.9618317445067E-02  3.3928455388042E-02
    11  1.0000000000000E-01  6.1045489091585E-02  4.1881866376810E-02
    12  1.1000000000000E-01  7.3583129560968E-02  5.0666427300171E-02
    13  1.2000000000000E-01  8.7204262818397E-02  6.0278020969125E-02
    14  1.3000000000000E-01  1.0187968822254E-01  7.0711100612565E-02
    15  1.4000000000000E-01  1.1757806920452E-01  8.1958443207653E-02
    16  1.5000000000000E-01  1.3426602745099E-01  9.4010896335975E-02
    17  1.6000000000000E-01  1.5190824209116E-01  1.0685712185890E-01
    18  1.7000000000000E-01  1.7046755336760E-01  1.2048333979775E-01
    19  1.8000000000000E-01  1.8990507025378E-01  1.3487307586421E-01
    20  1.9000000000000E-01  2.1018028146950E-01  1.5000691610939E-01
    21  2.0000000000000E-01  2.3125116933692E-01  1.6586227214944E-01
    22  2.1000000000000E-01  2.5307432591598E-01  1.8241316037783E-01
    23  2.2000000000000E-01  2.7560507085836E-01  1.9962999849354E-01
    24  2.3000000000000E-01  2.9879757042339E-01  2.1747942255695E-01
    25  2.4000000000000E-01  3.2260495710772E-01  2.3592412763541E-01
    26  2.5000000000000E-01  3.4697944935298E-01  2.5492273491806E-01
    27  2.6000000000000E-01  3.7187247081206E-01  2.7442968796558E-01
    28  2.7000000000000E-01  3.9723476867391E-01  2.9439518051847E-01
    29  2.8000000000000E-01  4.2301653057074E-01  3.1476511801768E-01
    30  2.9000000000000E-01  4.4916749961729E-01  3.3548111469794E-01
    31  3.0000000000000E-01  4.7563708716168E-01  3.5648052779776E-01
    32  3.1000000000000E-01  5.0237448285893E-01  3.7769653009614E-01
    33  3.2000000000000E-01  5.2932876171296E-01  3.9905822163408E-01
    34  3.3000000000000E-01  5.5644898776890E-01  4.2049078111649E-01
    35  3.4000000000000E-01  5.8368431417558E-01  4.4191565711620E-01
    36  3.5000000000000E-01  6.1098407937748E-01  4.6325079882313E-01
    37  3.6000000000000E-01  6.3829789923524E-01  4.8441092570016E-01
    38  3.7000000000000E-01  6.6557575491505E-01  5.0530783502667E-01
    39  3.8000000000000E-01  6.9276807642763E-01  5.2585074593484E-01
    40  3.9000000000000E-01  7.1982582173856E-01  5.4594667817669E-01
    41  4.0000000000000E-01  7.4670055141166E-01  5.6550086350360E-01
    42  4.1000000000000E-01  7.7334449878627E-01  5.8441718719952E-01
    43  4.2000000000000E-01  7.9971063572729E-01  6.0259865698703E-01
    44  4.3000000000000E-01  8.2575273402272E-01  6.1994789622452E-01
    45  4.4000000000000E-01  8.5142542253821E-01  6.3636765803667E-01
    46  4.5000000000000E-01  8.7668424026942E-01  6.5176135677199E-01
    47  4.6000000000000E-01  9.0148568546301E-01  6.6603361296161E-01
    48  4.7000000000000E-01  9.2578726100328E-01  6.7909080776721E-01
    49  4.8000000000000E-01  9.4954751628521E-01  6.9084164275293E-01
    50  4.9000000000000E-01  9.7272608581473E-01  7.0119770069903E-01
    51  5.0000000000000E-01  9.9528372479437E-01  7.1007400309543E-01
    52  5.1000000000000E-01  1.0171823419651E+00  7.1738955991146E-01
    53  5.2000000000000E-01  1.0383850299858E+00  7.2306790723514E-01
    54  5.3000000000000E-01  1.0588560936362E+00  7.2703762841213E-01