Y     ONCVPSP-4.0.1  r_core=   2.25543   2.11179   2.40883
     39.0000     11.0000      220723    zatom,zion,pspd
     8      11   2     4   600     0    pspcod,pspxc,lmax,lloc,mmax,r2well
  5.99000000  4.00000000  0.00000000    rchrg fchrg qchrg
     2     2     2     0     0    nproj
     1     1           extension_switch
   0                         2.6279358505465E+00 -1.3533500037431E-01
     1  0.0000000000000E+00  1.5767942507239E-12  8.5009110861733E-11
     2  1.0000000000000E-02  4.3282949297770E-02  2.6665392560046E-02
     3  2.0000000000000E-02  8.6519482325742E-02  5.3292997130560E-02
     4  3.0000000000000E-02  1.2966323854940E-01  7.9844881407371E-02
     5  4.0000000000000E-02  1.7266796887728E-01  1.0628282674054E-01
     6  5.0000000000000E-02  2.1548759131339E-01  1.3256819064848E-01
     7  6.0000000000000E-02  2.5807624652552E-01  1.5866177609602E-01
     8  7.0000000000000E-02  3.0038835329953E-01  1.8452370969039E-01
     9  8.0000000000000E-02  3.4237866384823E-01  2.1011333086460E-01
    10  9.0000000000000E-02  3.8400231894128E-01  2.3538909401245E-01
    11  1.0000000000000E-01  4.2521490282057E-01  2.6030848541591E-01
    12  1.1000000000000E-01  4.6597249786249E-01  2.8482795666377E-01
    13  1.2000000000000E-01  5.0623173894627E-01  3.0890287610240E-01
    14  1.3000000000000E-01  5.4594986748357E-01  3.3248749968552E-01
    15  1.4000000000000E-01  5.8508478506192E-01  3.5553496240284E-01
    16  1.5000000000000E-01  6.2359510665054E-01  3.7799729126780E-01
    17  1.6000000000000E-01  6.6144021331345E-01  3.9982544063447E-01
    18  1.7000000000000E-01  6.9858030437110E-01  4.2096935039558E-01
    19  1.8000000000000E-01  7.3497644894776E-01  4.4137802738798E-01
    20  1.9000000000000E-01  7.7059063683790E-01  4.6099965010218E-01
    21  2.0000000000000E-01  8.0538582862114E-01  4.7978169655982E-01
    22  2.1000000000000E-01  8.3932600495135E-01  4.9767109498963E-01
    23  2.2000000000000E-01  8.7237621494175E-01  5.1461439670054E-01
    24  2.3000000000000E-01  9.0450262356470E-01  5.3055797032201E-01
    25  2.4000000000000E-01  9.3567255798089E-01  5.4544821635867E-01
    26  2.5000000000000E-01  9.6585455271038E-01  5.5923180079073E-01
    27  2.6000000000000E-01  9.9501839355436E-01  5.7185590624531E-01
    28  2.7000000000000E-01  1.0231351601748E+00  5.8326849906891E-01
    29  2.8000000000000E-01  1.0501772672365E+00  5.9341861044910E-01
    30  2.9000000000000E-01  1.0761185040151E+00  6.0225662956615E-01
    31  3.0000000000000E-01  1.1009340723722E+00  6.0973460660402E-01
    32  3.1000000000000E-01  1.1246006230002E+00  6.1580656331669E-01
    33  3.2000000000000E-01  1.1470962898362E+00  6.2042880873068E-01
    34  3.3000000000000E-01  1.1684007225477E+00  6.2356025747019E-01
    35  3.4000000000000E-01  1.1884951169923E+00  6.2516274811708E-01
    36  3.5000000000000E-01  1.2073622435538E+00  6.2520135896584E-01
    37  3.6000000000000E-01  1.2249864732619E+00  6.2364471850372E-01
    38  3.7000000000000E-01  1.2413538016032E+00  6.2046530793886E-01
    39  3.8000000000000E-01  1.2564518699348E+00  6.1563975311489E-01
    40  3.9000000000000E-01  1.2702699844161E+00  6.0914910318906E-01
    41  4.0000000000000E-01  1.2827991323786E+00  6.0097909351220E-01
    42  4.1000000000000E-01  1.2940319960577E+00  5.9112039023218E-01
    43  4.2000000000000E-01  1.3039629636164E+00  5.7956881424840E-01
    44  4.3000000000000E-01  1.3125881373981E+00  5.6632554227108E-01
    45  4.4000000000000E-01  1.3199053393495E+00  5.5139728288585E-01
    46  4.5000000000000E-01  1.3259141135638E+00  5.3479642568963E-01
    47  4.6000000000000E-01  1.3306157259008E+00  5.1654116174782E-01
    48  4.7000000000000E-01  1.3340131606493E+00  4.9665557382198E-01
    49  4.8000000000000E-01  1.3361111142033E+00  4.7516969503227E-01
    50  4.9000000000000E-01  1.3369159857351E+00  4.5211953484642E-01
    51  5.0000000000000E-01  1.3364358648535E+00  4.2754707152641E-01
    52  5.1000000000000E-01  1.3346805162484E+00  4.0150021041161E-01
    53  5.2000000000000E-01  1.3316613613291E+00  3.7403270767378E-01
    54  5.3000000000000E-01  1.3273914568734E+00  3.4520405943973E-01
    55  5.4000000000000E-01  1.3218854707163E+00  3.1507935644169E-01
    56  5.5000000000000E-01  1.3151596545139E+00  2.8372910462063E-01
    57  5.6000000000000E-01  1.3072318136284E+00  2.5122901237163E-01
    58  5.7000000000000E-01  1.2981212741899E+00  2.1765974538064E-01
    59  5.8000000000000E-01  1.2878488473995E+00  1.8310665025711E-01
    60  5.9000000000000E-01  1.2764367911466E+00  1.4765944841394E-01
    61  6.0000000000000E-01  1.2639087690235E+00  1.1141190188313E-01
    62  6.1000000000000E-01  1.2502898068271E+00  7.4461452981946E-02
    63  6.2000000000000E-01  1.2356062466460E+00  3.6908839954776E-02
    64  6.3000000000000E-01  1.2198856986414E+00 -1.1423090869763E-03
    65  6.4000000000000E-01  1.2031569906317E+00 -3.9585901426319E-02
    66  6.5000000000000E-01  1.1854501156058E+00 -7.8313821542700E-02
    67  6.6000000000000E-01  1.1667961772865E+00 -1.1721638665438E-01
    68  6.7000000000000E-01  1.1472273338808E+00 -1.5618281308206E-01
    69  6.8000000000000E-01  1.1267767401514E+00 -1.9510169042062E-01
    70  6.9000000000000E-01  1.1054784879516E+00 -2.3386146043151E-01
    71  7.0000000000000E-01  1.0833675453710E+00 -2.7235089752268E-01
    72  7.1000000000000E-01  1.0604796946384E+00 -3.1045958765835E-01
    73  7.2000000000000E-01  1.0368514689343E+00 -3.4807840254348E-01
    74  7.3000000000000E-01  1.0125200882669E+00 -3.8509996595417E-01
    75  7.4000000000000E-01  9.8752339456403E-01 -4.2141910913794E-01
    76  7.5000000000000E-01  9.6189978613789E-01 -4.5693331228395E-01
    77  7.6000000000000E-01  9.3568815167612E-01 -4.9154312916420E-01
    78  7.7000000000000E-01  9.0892780391330E-01 -5.2515259217091E-01
    79  7.8000000000000E-01  8.8165841313550E-01 -5.5766959512213E-01
    80  7.9000000000000E-01  8.5391994066814E-01 -5.8900625137574E-01
    81  8.0000000000000E-01  8.2575257249498E-01 -6.1907922497967E-01
    82  8.1000000000000E-01  7.9719665315254E-01 -6.4781003279388E-01
    83  8.2000000000000E-01  7.6829262004095E-01 -6.7512531574175E-01
    84  8.3000000000000E-01  7.3908093828732E-01 -7.0095707758926E-01
    85  8.4000000000000E-01  7.0960203629381E-01 -7.2524288990060E-01
    86  8.5000000000000E-01  6.7989624209657E-01 -7.4792606208304E-01
    87  8.6000000000000E-01  6.5000372065694E-01 -7.6895577570572E-01
    88  8.7000000000000E-01  6.1996441219998E-01 -7.8828718255625E-01
    89  8.8000000000000E-01  5.8981797170946E-01 -8.0588146618198E-01
    90  8.9000000000000E-01  5.5960370968212E-01 -8.2170586694938E-01
    91  9.0000000000000E-01  5.2936053423728E-01 -8.3573367093883E-01
    92  9.1000000000000E-01  4.9912689467148E-01 -8.4794416327652E-01
    93  9.2000000000000E-01  4.6894072654071E-01 -8.5832254678165E-01
    94  9.3000000000000E-01  4.3883939834647E-01 -8.6685982707818E-01
    95  9.4000000000000E-01  4.0885965989458E-01 -8.7355266558075E-01
    96  9.5000000000000E-01  3.7903759238947E-01 -8.7840320201355E-01
    97  9.6000000000000E-01  3.4940856031966E-01 -8.8141884835567E-01
    98  9.7000000000000E-01  3.2000716518400E-01 -8.8261205632556E-01
    99  9.8000000000000E-01  2.9086720110174E-01 -8.8200006071783E-01
   100  9.9000000000000E-01  2.6202161234365E-01 -8.7960460108738E-01
   101  1.0000000000000E+00  2.3350245281563E-01 -8.7545162443581E-01
   102  1.0100000000000E+00  2.0534084752058E-01 -8.6957097169234E-01
   103  1.0200000000000E+00  1.7756695601958E-01 -8.6199605089516E-01
   104  1.0300000000000E+00  1.5020993790817E-01 -8.5276350006776E-01
   105  1.0400000000000E+00  1.2329792031947E-01 -8.4191284284735E-01
   106  1.0500000000000E+00  9.6857967461713E-02 -8.2948613995933E-01
   107  1.0600000000000E+00  7.0916052194014E-02 -8.1552763964082E-01
   108  1.0700000000000E+00  4.5497029641256E-02 -8.0008343010008E-01
   109  1.0800000000000E+00  2.0624612845817E-02 -7.8320109705295E-01
   110  1.0900000000000E+00 -3.6786495483278E-03 -7.6492938930831E-01
   111  1.1000000000000E+00 -2.7391393585772E-02 -7.4531789527660E-01
   112  1.1100000000000E+00 -5.0493458272321E-02 -7.2441673315428E-01
   113  1.1200000000000E+00 -7.2965901839680E-02 -7.0227625738942E-01
   114  1.1300000000000E+00 -9.4791016012670E-02 -6.7894678386631E-01
   115  1.1400000000000E+00 -1.1595233829008E-01 -6.5447833605225E-01
   116  1.1500000000000E+00 -1.3643466225058E-01 -6.2892041414195E-01
   117  1.1600000000000E+00 -1.5622404589529E-01 -6.0232178900175E-01
   118  1.1700000000000E+00 -1.7530781803827E-01 -5.7473032247175E-01
   119  1.1800000000000E+00 -1.9367458275595E-01 -5.4619281532161E-01
   120  1.1900000000000E+00 -2.1131422190617E-01 -5.1675488388333E-01
   121  1.2000000000000E+00 -2.2821789572646E-01 -4.8646086610188E-01
   122  1.2100000000000E+00 -2.4437804152105E-01 -4.5535375745271E-01
   123  1.2200000000000E+00 -2.5978837044494E-01 -4.2347517688237E-01
   124  1.2300000000000E+00 -2.7444386239292E-01 -3.9086536262763E-01
   125  1.2400000000000E+00 -2.8834075900082E-01 -3.5756319747508E-01
   126  1.2500000000000E+00 -3.0147655476549E-01 -3.2360626272520E-01
   127  1.2600000000000E+00 -3.1384998628999E-01 -2.8903091983796E-01
   128  1.2700000000000E+00 -3.2546101966006E-01 -2.5387241845629E-01
   129  1.2800000000000E+00 -3.3631083595799E-01 -2.1816502923228E-01
   130  1.2900000000000E+00 -3.4640181492052E-01 -1.8194219962442E-01
   131  1.3000000000000E+00 -3.5573751674765E-01 -1.4523673059328E-01
   132  1.3100000000000E+00 -3.6432266207070E-01 -1.0808097189711E-01
   133  1.3200000000000E+00 -3.7216311008871E-01 -7.0507033485885E-02
   134  1.3300000000000E+00 -3.7926583488441E-01 -3.2547010308783E-02
   135  1.3400000000000E+00 -3.8563889993281E-01  5.7667823086273E-03
   136  1.3500000000000E+00 -3.9129143081819E-01  4.4401565696140E-02
   137  1.3600000000000E+00 -3.9623358617788E-01  8.3323850365709E-02
   138  1.3700000000000E+00 -4.0047652689515E-01  1.2249918719977E-01
   139  1.3800000000000E+00 -4.0403238356667E-01  1.6189192051963E-01
   140  1.3900000000000E+00 -4.0691422227491E-01  2.0146494627525E-01
   141  1.4000000000000E+00 -4.0913600869998E-01  2.4117947859028E-01
   142  1.4100000000000E+00 -4.1071257061096E-01  2.8099482786059E-01
   143  1.4200000000000E+00 -4.1165955878172E-01  3.2086819353739E-01
   144  1.4300000000000E+00 -4.1199340638267E-01  3.6075447463047E-01
   145  1.4400000000000E+00 -4.1173128690540E-01  4.0060610084286E-01
   146  1.4500000000000E+00 -4.1089107068415E-01  4.4037288709561E-01
   147  1.4600000000000E+00 -4.0949128008441E-01  4.8000191402133E-01
   148  1.4700000000000E+00 -4.0755104343597E-01  5.1943743680200E-01
   149  1.4800000000000E+00 -4.0509004779488E-01  5.5862082449527E-01
   150  1.4900000000000E+00 -4.0212849062582E-01  5.9749053174430E-01
   151  1.5000000000000E+00 -3.9868703050358E-01  6.3598210449336E-01
   152  1.5100000000000E+00 -3.9478673693982E-01  6.7402822104297E-01
   153  1.5200000000000E+00 -3.9044903944793E-01  7.1155876947203E-01
   154  1.5300000000000E+00 -3.8569567596635E-01  7.4850096213684E-01
   155  1.5400000000000E+00 -3.8054864076704E-01  7.8477948762640E-01
   156  1.5500000000000E+00 -3.7503013198248E-01  8.2031670021816E-01
   157  1.5600000000000E+00 -3.6916249889094E-01  8.5503284653418E-01
   158  1.5700000000000E+00 -3.6296818910508E-01  8.8884632875441E-01
   159  1.5800000000000E+00 -3.5646969581472E-01  9.2167400340029E-01
   160  1.5900000000000E+00 -3.4968950523909E-01  9.5343151436129E-01
   161  1.6000000000000E+00 -3.4265004444804E-01  9.8403365850455E-01
   162  1.6100000000000E+00 -3.3537362971547E-01  1.0133947818836E+00
   163  1.6200000000000E+00 -3.2788241557057E-01  1.0414292042515E+00
   164  1.6300000000000E+00 -3.2019834471501E-01  1.0680516692869E+00
   165  1.6400000000000E+00 -3.1234309897501E-01  1.0931778176656E+00
   166  1.6500000000000E+00 -3.0433805145780E-01  1.1167246798494E+00
   167  1.6600000000000E+00 -2.9620422008140E-01  1.1386111852333E+00
   168  1.6700000000000E+00 -2.8796222264513E-01  1.1587586840788E+00
   169  1.6800000000000E+00 -2.7963223360579E-01  1.1770914784820E+00
   170  1.6900000000000E+00 -2.7123394272124E-01  1.1935373584693E+00
   171  1.7000000000000E+00 -2.6278651571850E-01  1.2080281391923E+00
   172  1.7100000000000E+00 -2.5430855713816E-01  1.2205001951014E+00
   173  1.7200000000000E+00 -2.4581807550062E-01  1.2308949869207E+00
   174  1.7300000000000E+00 -2.3733245093208E-01  1.2391595772222E+00
   175  1.7400000000000E+00 -2.2886840538013E-01  1.2452471304084E+00
   176  1.7500000000000E+00 -2.2044197553930E-01  1.2491173929561E+00
   177  1.7600000000000E+00 -2.1206848859685E-01  1.2507371498561E+00
   178  1.7700000000000E+00 -2.0376254089787E-01  1.2500806532965E+00
   179  1.7800000000000E+00 -1.9553797961715E-01  1.2471300197849E+00
   180  1.7900000000000E+00 -1.8740788751212E-01  1.2418755920874E+00
   181  1.8000000000000E+00 -1.7938457081841E-01  1.2343162625748E+00
   182  1.8100000000000E+00 -1.7147955033492E-01  1.2244597548087E+00
   183  1.8200000000000E+00 -1.6370355573108E-01  1.2123228604727E+00
   184  1.8300000000000E+00 -1.5606652309379E-01  1.1979316290557E+00
   185  1.8400000000000E+00 -1.4857759571589E-01  1.1813215080114E+00
   186  1.8500000000000E+00 -1.4124512811231E-01  1.1625374314722E+00
   187  1.8600000000000E+00 -1.3407669323396E-01  1.1416338559557E+00
   188  1.8700000000000E+00 -1.2707909283308E-01  1.1186747418843E+00
   189  1.8800000000000E+00 -1.2025837091781E-01  1.0937334801399E+00
   190  1.8900000000000E+00 -1.1361983021718E-01  1.0668927632793E+00
   191  1.9000000000000E+00 -1.0716805156203E-01  1.0382444014530E+00
   192  1.9100000000000E+00 -1.0090691607153E-01  1.0078890834900E+00
   193  1.9200000000000E+00 -9.4839630019529E-02  9.7593608403269E-01
   194  1.9300000000000E+00 -8.8968752240160E-02  9.4250291802588E-01
   195  1.9400000000000E+00 -8.3296223917709E-02  9.0771494427883E-01
   196  1.9500000000000E+00 -7.7823400592236E-02  8.7170492022365E-01
   197  1.9600000000000E+00 -7.2551086199540E-02  8.3461251038393E-01
   198  1.9700000000000E+00 -6.7479568951835E-02  7.9658375145487E-01
   199  1.9800000000000E+00 -6.2608658854666E-02  7.5777047724780E-01
   200  1.9900000000000E+00 -5.7937726645409E-02  7.1832970709493E-01
   201  2.0000000000000E+00 -5.3465743929785E-02  6.7842300162455E-01
   202  2.0100000000000E+00 -4.9191324284941E-02  6.3821579010827E-01
   203  2.0200000000000E+00 -4.5112765091270E-02  5.9787667383476E-01
   204  2.0300000000000E+00 -4.1228089849644E-02  5.5757671019937E-01
   205  2.0400000000000E+00 -3.7535090736878E-02  5.1748868239305E-01
   206  2.0500000000000E+00 -3.4031371149651E-02  4.7778635973181E-01
   207  2.0600000000000E+00 -3.0714387985893E-02  4.3864375379374E-01
   208  2.0700000000000E+00 -2.7581493416315E-02  4.0023437664666E-01
   209  2.0800000000000E+00 -2.4629975884507E-02  3.6273050607275E-01
   210  2.0900000000000E+00 -2.1857100007254E-02  3.2630241552400E-01
   211  2.1000000000000E+00 -1.9260145742824E-02  2.9111784024520E-01
   212  2.1100000000000E+00 -1.6836443954405E-02  2.5734072248088E-01
   213  2.1200000000000E+00 -1.4583408175990E-02  2.2512844418042E-01
   214  2.1300000000000E+00 -1.2498562142402E-02  1.9462934346058E-01
   215  2.1400000000000E+00 -1.0579597055178E-02  1.6598139237607E-01
   216  2.1500000000000E+00 -8.8245333652455E-03  1.3930745292082E-01
   217  2.1600000000000E+00 -7.2317392821755E-03  1.1471465949273E-01
   218  2.1700000000000E+00 -5.7994508123258E-03  9.2310141049719E-02
   219  2.1800000000000E+00 -4.5261873801017E-03  7.2189646216158E-02
   220  2.1900000000000E+00 -3.4108579318818E-03  5.4434721305942E-02
   221  2.2000000000000E+00 -2.4527459855927E-03  3.9113209665115E-02
   222  2.2100000000000E+00 -1.6515334331767E-03  2.6278722101253E-02
   223  2.2200000000000E+00 -1.0076068748762E-03  1.5974831845806E-02
   224  2.2300000000000E+00 -5.2003324627517E-04  8.2037345678830E-03
   225  2.2400000000000E+00 -1.9120823597751E-04  2.9973143429958E-03
   226  2.2500000000000E+00 -3.1041859950342E-05  4.8257377355916E-04
   227  2.2600000000000E+00  7.1879122368560E-06 -1.1128195576117E-04
   228  2.2700000000000E+00 -6.7135795427026E-07  1.0445056439122E-05
   229  2.2800 -0.  0.
   230  2.2900  0. -0.
   231  2.3000 -0. -0.
   232  2.3100 -0. -0.
   233  2.3200  0.  0.
   234  2.3300  0.  0.
   235  2.3400  0.  0.
   236  2.3500  0.  0.
   237  2.3600  0.  0.
   238  2.3700  0.  0.
   239  2.3800  0.  0.
   240  2.3900  0.  0.
   241  2.4000  0.  0.
   242  2.4100  0.  0.
   243  2.4200  0.  0.
   244  2.4300  0.  0.
   245  2.4400  0.  0.
   246  2.4500  0.  0.
   247  2.4600  0.  0.
   248  2.4700  0.  0.
   249  2.4800  0.  0.
   250  2.4900  0.  0.
   251  2.5000  0.  0.
   252  2.5100  0.  0.
   253  2.5200  0.  0.
   254  2.5300  0.  0.
   255  2.5400  0.  0.
   256  2.5500  0.  0.
   257  2.5600  0.  0.
   258  2.5700  0.  0.
   259  2.5800  0.  0.
   260  2.5900  0.  0.
   261  2.6000  0.  0.
   262  2.6100  0.  0.
   263  2.6200  0.  0.
   264  2.6300  0.  0.
   265  2.6400  0.  0.
   266  2.6500  0.  0.
   267  2.6600  0.  0.
   268  2.6700  0.  0.
   269  2.6800  0.  0.
   270  2.6900  0.  0.
   271  2.7000  0.  0.
   272  2.7100  0.  0.
   273  2.7200  0.  0.
   274  2.7300  0.  0.
   275  2.7400  0.  0.
   276  2.7500  0.  0.
   277  2.7600  0.  0.
   278  2.7700  0.  0.
   279  2.7800  0.  0.
   280  2.7900  0.  0.
   281  2.8000  0.  0.
   282  2.8100  0.  0.
   283  2.8200  0.  0.
   284  2.8300  0.  0.
   285  2.8400  0.  0.
   286  2.8500  0.  0.
   287  2.8600  0.  0.
   288  2.8700  0.  0.
   289  2.8800  0.  0.
   290  2.8900  0.  0.
   291  2.9000  0.  0.
   292  2.9100  0.  0.
   293  2.9200  0.  0.
   294  2.9300  0.  0.
   295  2.9400  0.  0.
   296  2.9500  0.  0.
   297  2.9600  0.  0.
   298  2.9700  0.  0.
   299  2.9800  0.  0.
   300  2.9900  0.  0.
   301  3.0000  0.  0.
   302  3.0100  0.  0.
   303  3.0200  0.  0.
   304  3.0300  0.  0.
   305  3.0400  0.  0.
   306  3.0500  0.  0.
   307  3.0600  0.  0.
   308  3.0700  0.  0.
   309  3.0800  0.  0.
   310  3.0900  0.  0.
   311  3.1000  0.  0.
   312  3.1100  0.  0.
   313  3.1200  0.  0.
   314  3.1300  0.  0.
   315  3.1400  0.  0.
   316  3.1500  0.  0.
   317  3.1600  0.  0.
   318  3.1700  0.  0.
   319  3.1800  0.  0.
   320  3.1900  0.  0.
   321  3.2000  0.  0.
   322  3.2100  0.  0.
   323  3.2200  0.  0.
   324  3.2300  0.  0.
   325  3.2400  0.  0.
   326  3.2500  0.  0.
   327  3.2600  0.  0.
   328  3.2700  0.  0.
   329  3.2800  0.  0.
   330  3.2900  0.  0.
   331  3.3000  0.  0.
   332  3.3100  0.  0.
   333  3.3200  0.  0.
   334  3.3300  0.  0.
   335  3.3400  0.  0.
   336  3.3500  0.  0.
   337  3.3600  0.  0.
   338  3.3700  0.  0.
   339  3.3800  0.  0.
   340  3.3900  0.  0.
   341  3.4000  0.  0.
   342  3.4100  0.  0.
   343  3.4200  0.  0.
   344  3.4300  0.  0.
   345  3.4400  0.  0.
   346  3.4500  0.  0.
   347  3.4600  0.  0.
   348  3.4700  0.  0.
   349  3.4800  0.  0.
   350  3.4900  0.  0.
   351  3.5000  0.  0.
   352  3.5100  0.  0.
   353  3.5200  0.  0.
   354  3.5300  0.  0.
   355  3.5400  0.  0.
   356  3.5500  0.  0.
   357  3.5600  0.  0.
   358  3.5700  0.  0.
   359  3.5800  0.  0.
   360  3.5900  0.  0.
   361  3.6000  0.  0.
   362  3.6100  0.  0.
   363  3.6200  0.  0.
   364  3.6300  0.  0.
   365  3.6400  0.  0.
   366  3.6500  0.  0.
   367  3.6600  0.  0.
   368  3.6700  0.  0.
   369  3.6800  0.  0.
   370  3.6900  0.  0.
   371  3.7000  0.  0.
   372  3.7100  0.  0.
   373  3.7200  0.  0.
   374  3.7300  0.  0.
   375  3.7400  0.  0.
   376  3.7500  0.  0.
   377  3.7600  0.  0.
   378  3.7700  0.  0.
   379  3.7800  0.  0.
   380  3.7900  0.  0.
   381  3.8000  0.  0.
   382  3.8100  0.  0.
   383  3.8200  0.  0.
   384  3.8300  0.  0.
   385  3.8400  0.  0.
   386  3.8500  0.  0.
   387  3.8600  0.  0.
   388  3.8700  0.  0.
   389  3.8800  0.  0.
   390  3.8900  0.  0.
   391  3.9000  0.  0.
   392  3.9100  0.  0.
   393  3.9200  0.  0.
   394  3.9300  0.  0.
   395  3.9400  0.  0.
   396  3.9500  0.  0.
   397  3.9600  0.  0.
   398  3.9700  0.  0.
   399  3.9800  0.  0.
   400  3.9900  0.  0.
   401  4.0000  0.  0.
   402  4.0100  0.  0.
   403  4.0200  0.  0.
   404  4.0300  0.  0.
   405  4.0400  0.  0.
   406  4.0500  0.  0.
   407  4.0600  0.  0.
   408  4.0700  0.  0.
   409  4.0800  0.  0.
   410  4.0900  0.  0.
   411  4.1000  0.  0.
   412  4.1100  0.  0.
   413  4.1200  0.  0.
   414  4.1300  0.  0.
   415  4.1400  0.  0.
   416  4.1500  0.  0.
   417  4.1600  0.  0.
   418  4.1700  0.  0.
   419  4.1800  0.  0.
   420  4.1900  0.  0.
   421  4.2000  0.  0.
   422  4.2100  0.  0.
   423  4.2200  0.  0.
   424  4.2300  0.  0.
   425  4.2400  0.  0.
   426  4.2500  0.  0.
   427  4.2600  0.  0.
   428  4.2700  0.  0.
   429  4.2800  0.  0.
   430  4.2900  0.  0.
   431  4.3000  0.  0.
   432  4.3100  0.  0.
   433  4.3200  0.  0.
   434  4.3300  0.  0.
   435  4.3400  0.  0.
   436  4.3500  0.  0.
   437  4.3600  0.  0.
   438  4.3700  0.  0.
   439  4.3800  0.  0.
   440  4.3900  0.  0.
   441  4.4000  0.  0.
   442  4.4100  0.  0.
   443  4.4200  0.  0.
   444  4.4300  0.  0.
   445  4.4400  0.  0.
   446  4.4500  0.  0.
   447  4.4600  0.  0.
   448  4.4700  0.  0.
   449  4.4800  0.  0.
   450  4.4900  0.  0.
   451  4.5000  0.  0.
   452  4.5100  0.  0.
   453  4.5200  0.  0.
   454  4.5300  0.  0.
   455  4.5400  0.  0.
   456  4.5500  0.  0.
   457  4.5600  0.  0.
   458  4.5700  0.  0.
   459  4.5800  0.  0.
   460  4.5900  0.  0.
   461  4.6000  0.  0.
   462  4.6100  0.  0.
   463  4.6200  0.  0.
   464  4.6300  0.  0.
   465  4.6400  0.  0.
   466  4.6500  0.  0.
   467  4.6600  0.  0.
   468  4.6700  0.  0.
   469  4.6800  0.  0.
   470  4.6900  0.  0.
   471  4.7000  0.  0.
   472  4.7100  0.  0.
   473  4.7200  0.  0.
   474  4.7300  0.  0.
   475  4.7400  0.  0.
   476  4.7500  0.  0.
   477  4.7600  0.  0.
   478  4.7700  0.  0.
   479  4.7800  0.  0.
   480  4.7900  0.  0.
   481  4.8000  0.  0.
   482  4.8100  0.  0.
   483  4.8200  0.  0.
   484  4.8300  0.  0.
   485  4.8400  0.  0.
   486  4.8500  0.  0.
   487  4.8600  0.  0.
   488  4.8700  0.  0.
   489  4.8800  0.  0.
   490  4.8900  0.  0.
   491  4.9000  0.  0.
   492  4.9100  0.  0.
   493  4.9200  0.  0.
   494  4.9300  0.  0.
   495  4.9400  0.  0.
   496  4.9500  0.  0.
   497  4.9600  0.  0.
   498  4.9700  0.  0.
   499  4.9800  0.  0.
   500  4.9900  0.  0.
   501  5.0000  0.  0.
   502  5.0100  0.  0.
   503  5.0200  0.  0.
   504  5.0300  0.  0.
   505  5.0400  0.  0.
   506  5.0500  0.  0.
   507  5.0600  0.  0.
   508  5.0700  0.  0.
   509  5.0800  0.  0.
   510  5.0900  0.  0.
   511  5.1000  0.  0.
   512  5.1100  0.  0.
   513  5.1200  0.  0.
   514  5.1300  0.  0.
   515  5.1400  0.  0.
   516  5.1500  0.  0.
   517  5.1600  0.  0.
   518  5.1700  0.  0.
   519  5.1800  0.  0.
   520  5.1900  0.  0.
   521  5.2000  0.  0.
   522  5.2100  0.  0.
   523  5.2200  0.  0.
   524  5.2300  0.  0.
   525  5.2400  0.  0.
   526  5.2500  0.  0.
   527  5.2600  0.  0.
   528  5.2700  0.  0.
   529  5.2800  0.  0.
   530  5.2900  0.  0.
   531  5.3000  0.  0.
   532  5.3100  0.  0.
   533  5.3200  0.  0.
   534  5.3300  0.  0.
   535  5.3400  0.  0.
   536  5.3500  0.  0.
   537  5.3600  0.  0.
   538  5.3700  0.  0.
   539  5.3800  0.  0.
   540  5.3900  0.  0.
   541  5.4000  0.  0.
   542  5.4100  0.  0.
   543  5.4200  0.  0.
   544  5.4300  0.  0.
   545  5.4400  0.  0.
   546  5.4500  0.  0.
   547  5.4600  0.  0.
   548  5.4700  0.  0.
   549  5.4800  0.  0.
   550  5.4900  0.  0.
   551  5.5000  0.  0.
   552  5.5100  0.  0.
   553  5.5200  0.  0.
   554  5.5300  0.  0.
   555  5.5400  0.  0.
   556  5.5500  0.  0.
   557  5.5600  0.  0.
   558  5.5700  0.  0.
   559  5.5800  0.  0.
   560  5.5900  0.  0.
   561  5.6000  0.  0.
   562  5.6100  0.  0.
   563  5.6200  0.  0.
   564  5.6300  0.  0.
   565  5.6400  0.  0.
   566  5.6500  0.  0.
   567  5.6600  0.  0.
   568  5.6700  0.  0.
   569  5.6800  0.  0.
   570  5.6900  0.  0.
   571  5.7000  0.  0.
   572  5.7100  0.  0.
   573  5.7200  0.  0.
   574  5.7300  0.  0.
   575  5.7400  0.  0.
   576  5.7500  0.  0.
   577  5.7600  0.  0.
   578  5.7700  0.  0.
   579  5.7800  0.  0.
   580  5.7900  0.  0.
   581  5.8000  0.  0.
   582  5.8100  0.  0.
   583  5.8200  0.  0.
   584  5.8300  0.  0.
   585  5.8400  0.  0.
   586  5.8500  0.  0.
   587  5.8600  0.  0.
   588  5.8700  0.  0.
   589  5.8800  0.  0.
   590  5.8900  0.  0.
   591  5.9000  0.  0.
   592  5.9100  0.  0.
   593  5.9200  0.  0.
   594  5.9300  0.  0.
   595  5.9400  0.  0.
   596  5.9500  0.  0.
   597  5.9600  0.  0.
   598  5.9700  0.  0.
   599  5.9800  0.  0.
   600  5.9900  0.  0.
   1                         1.2560716962278E+00 -1.9598167866102E-01
     1  0.0000000000000E+00  6.8082197518526E-10  3.3113238193105E-10
     2  1.0000000000000E-02  9.8850743755446E-04  7.8529947747722E-05
     3  2.0000000000000E-02  3.9502203009814E-03  3.1372270313577E-04
     4  3.0000000000000E-02  8.8737398118040E-03  7.0439778424717E-04
     5  4.0000000000000E-02  1.5740166184993E-02  1.2486234711390E-03
     6  5.0000000000000E-02  2.4523244555360E-02  1.9437697720729E-03
     7  6.0000000000000E-02  3.5189566610465E-02  2.7865812697389E-03
     8  7.0000000000000E-02  4.7698825313322E-02  3.7732685658840E-03
     9  8.0000000000000E-02  6.2004119417342E-02  4.8996167116230E-03
    10  9.0000000000000E-02  7.8052303843762E-02  6.1611087051319E-03
    11  1.0000000000000E-01  9.5784381417929E-02  7.5530618636271E-03
    12  1.1000000000000E-01  1.1513593095306E-01  9.0707746361080E-03
    13  1.2000000000000E-01  1.3603756623662E-01  1.0709681222020E-02
    14  1.3000000000000E-01  1.5841542012129E-01  1.2465511201745E-02
    15  1.4000000000000E-01  1.8219164765458E-01  1.4334451269938E-02
    16  1.5000000000000E-01  2.0728494200306E-01  1.6313306094818E-02
    17  1.6000000000000E-01  2.3361105684050E-01  1.8399655306277E-02
    18  1.7000000000000E-01  2.6108332887611E-01  2.0592003644029E-02
    19  1.8000000000000E-01  2.8961319429857E-01  2.2889921373157E-02
    20  1.9000000000000E-01  3.1911069310227E-01  2.5294172198194E-02
    21  2.0000000000000E-01  3.4948495554157E-01  2.7806826075656E-02
    22  2.1000000000000E-01  3.8064466532151E-01  3.0431354537056E-02
    23  2.2000000000000E-01  4.1249849457525E-01  3.3172706386275E-02
    24  2.3000000000000E-01  4.4495550619120E-01  3.6037361923298E-02
    25  2.4000000000000E-01  4.7792551962991E-01  3.9033364166375E-02
    26  2.5000000000000E-01  5.1131943700209E-01  4.2170325891797E-02
    27  2.6000000000000E-01  5.4504952685651E-01  4.5459411679390E-02
    28  2.7000000000000E-01  5.7902966383819E-01  4.8913294537272E-02
    29  2.8000000000000E-01  6.1317552311335E-01  5.2546087074764E-02
    30  2.9000000000000E-01  6.4740472920616E-01  5.6373247592703E-02
    31  3.0000000000000E-01  6.8163695964243E-01  6.0411461858115E-02
    32  3.1000000000000E-01  7.1579400453506E-01  6.4678501720613E-02
    33  3.2000000000000E-01  7.4979978396386E-01  6.9193062103799E-02
    34  3.3000000000000E-01  7.8358032568818E-01  7.3974578260947E-02
    35  3.4000000000000E-01  8.1706370637223E-01  7.9043025514804E-02
    36  3.5000000000000E-01  8.5017996009170E-01  8.4418704000812E-02
    37  3.6000000000000E-01  8.8286095841671E-01  9.0122011196944E-02
    38  3.7000000000000E-01  9.1504026682064E-01  9.6173205247309E-02
    39  3.8000000000000E-01  9.4665298254216E-01  1.0259216226669E-01
    40  3.9000000000000E-01  9.7763555932044E-01  1.0939813094657E-01
    41  4.0000000000000E-01  1.0079256246277E+00  1.1660948786725E-01
    42  4.1000000000000E-01  1.0374617951348E+00  1.2424349695399E-01
    43  4.2000000000000E-01  1.0661834961630E+00  1.3231607649630E-01
    44  4.3000000000000E-01  1.0940307907966E+00  1.4084157707936E-01
    45  4.4000000000000E-01  1.1209442241593E+00  1.4983257365447E-01
    46  4.5000000000000E-01  1.1468646880918E+00  1.5929967480420E-01
    47  4.6000000000000E-01  1.1717333111173E+00  1.6925135203856E-01
    48  4.7000000000000E-01  1.1954913781414E+00  1.7969379169483E-01
    49  4.8000000000000E-01  1.2180802838243E+00  1.9063077170872E-01
    50  4.9000000000000E-01  1.2394415229750E+00  2.0206356518318E-01
    51  5.0000000000000E-01  1.2595167206774E+00  2.1399087230739E-01
    52  5.1000000000000E-01  1.2782477041591E+00  2.2640878177862E-01
    53  5.2000000000000E-01  1.2955766176806E+00  2.3931076245899E-01
    54  5.3000000000000E-01  1.3114460809521E+00  2.5268768556378E-01
    55  5.4000000000000E-01  1.3257993908054E+00  2.6652787723485E-01
    56  5.5000000000000E-01  1.3385807650533E+00  2.8081720090760E-01
    57  5.6000000000000E-01  1.3497356266877E+00  2.9553916844063E-01
    58  5.7000000000000E-01  1.3592109257986E+00  3.1067507854938E-01
    59  5.8000000000000E-01  1.3669554958624E+00  3.2620418067558E-01
    60  5.9000000000000E-01  1.3729204403522E+00  3.4210386203973E-01
    61  6.0000000000000E-01  1.3770595449811E+00  3.5834985526989E-01
    62  6.1000000000000E-01  1.3793297103149E+00  3.7491646368205E-01
    63  6.2000000000000E-01  1.3796913989806E+00  3.9177680101119E-01
    64  6.3000000000000E-01  1.3781090912786E+00  4.0890304216113E-01
    65  6.4000000000000E-01  1.3745517426698E+00  4.2626668136057E-01
    66  6.5000000000000E-01  1.3689932363675E+00  4.4383879398446E-01
    67  6.6000000000000E-01  1.3614128241279E+00  4.6159029822659E-01
    68  6.7000000000000E-01  1.3517955482926E+00  4.7949221279346E-01
    69  6.8000000000000E-01  1.3401326382050E+00  4.9751590683035E-01
    70  6.9000000000000E-01  1.3264218742969E+00  5.1563333838932E-01
    71  7.0000000000000E-01  1.3106679134145E+00  5.3381727790398E-01