Zr    ONCVPSP-4.0.1  r_core=   2.21223   2.01031   2.50835
     40.0000     12.0000      220723    zatom,zion,pspd
     8      11   2     4   600     0    pspcod,pspxc,lmax,lloc,mmax,r2well
  5.99000000  5.00000000  0.00000000    rchrg fchrg qchrg
     2     2     2     0     0    nproj
     1     1           extension_switch
   0                         2.6349005244034E+00 -1.8687896824315E-01
     1  0.0000000000000E+00  3.3972824553530E-13  7.6687517447382E-11
     2  1.0000000000000E-02  4.4726045272019E-02  2.9609704121174E-02
     3  2.0000000000000E-02  8.9401380965903E-02  5.9166918619756E-02
     4  3.0000000000000E-02  1.3397536519784E-01  8.8619076595154E-02
     5  4.0000000000000E-02  1.7839749139568E-01  1.1791345851697E-01
     6  5.0000000000000E-02  2.2261745576204E-01  1.4699712070597E-01
     7  6.0000000000000E-02  2.6658522450614E-01  1.7581682951539E-01
     8  7.0000000000000E-02  3.1025110076649E-01  2.0431900302180E-01
     9  8.0000000000000E-02  3.5356579114683E-01  2.3244966195838E-01
    10  9.0000000000000E-02  3.9648047178679E-01  2.6015439152845E-01
    11  1.0000000000000E-01  4.3894685388861E-01  2.8737831562564E-01
    12  1.1000000000000E-01  4.8091724862053E-01  3.1406608485956E-01
    13  1.2000000000000E-01  5.2234463131697E-01  3.4016187964275E-01
    14  1.3000000000000E-01  5.6318270489504E-01  3.6560942943917E-01
    15  1.4000000000000E-01  6.0338596240613E-01  3.9035204910556E-01
    16  1.5000000000000E-01  6.4290974864109E-01  4.1433269307814E-01
    17  1.6000000000000E-01  6.8171032070639E-01  4.3749402796901E-01
    18  1.7000000000000E-01  7.1974490748867E-01  4.5977852394104E-01
    19  1.8000000000000E-01  7.5697176792409E-01  4.8112856502893E-01
    20  1.9000000000000E-01  7.9335024798873E-01  5.0148657836920E-01
    21  2.0000000000000E-01  8.2884083632599E-01  5.2079518209519E-01
    22  2.1000000000000E-01  8.6340521842647E-01  5.3899735144630E-01
    23  2.2000000000000E-01  8.9700632927596E-01  5.5603660243561E-01
    24  2.3000000000000E-01  9.2960840438707E-01  5.7185719221933E-01
    25  2.4000000000000E-01  9.6117702913043E-01  5.8640433511525E-01
    26  2.5000000000000E-01  9.9167918628145E-01  5.9962443303013E-01
    27  2.6000000000000E-01  1.0210833016997E+00  6.1146531887633E-01
    28  2.7000000000000E-01  1.0493592880584E+00  6.2187651139050E-01
    29  2.8000000000000E-01  1.0764785865428E+00  6.3080947961120E-01
    30  2.9000000000000E-01  1.1024142064378E+00  6.3821791513127E-01
    31  3.0000000000000E-01  1.1271407625252E+00  6.4405801011402E-01
    32  3.1000000000000E-01  1.1506345102161E+00  6.4828873895313E-01
    33  3.2000000000000E-01  1.1728733783422E+00  6.5087214136411E-01
    34  3.3000000000000E-01  1.1938369995341E+00  6.5177360462182E-01
    35  3.4000000000000E-01  1.2135067381191E+00  6.5096214260518E-01
    36  3.5000000000000E-01  1.2318657154700E+00  6.4841066927614E-01
    37  3.6000000000000E-01  1.2488988327427E+00  6.4409626420701E-01
    38  3.7000000000000E-01  1.2645927909441E+00  6.3800042777842E-01
    39  3.8000000000000E-01  1.2789361082735E+00  6.3010932369818E-01
    40  3.9000000000000E-01  1.2919191346868E+00  6.2041400654166E-01
    41  4.0000000000000E-01  1.3035340636370E+00  6.0891063208393E-01
    42  4.1000000000000E-01  1.3137749409482E+00  5.9560064828482E-01
    43  4.2000000000000E-01  1.3226376707871E+00  5.8049096489744E-01
    44  4.3000000000000E-01  1.3301200186991E+00  5.6359409980023E-01
    45  4.4000000000000E-01  1.3362216116845E+00  5.4492830029806E-01
    46  4.5000000000000E-01  1.3409439352916E+00  5.2451763780237E-01
    47  4.6000000000000E-01  1.3442903277162E+00  5.0239207447794E-01
    48  4.7000000000000E-01  1.3462659708949E+00  4.7858750063714E-01
    49  4.8000000000000E-01  1.3468778785934E+00  4.5314574186764E-01
    50  4.9000000000000E-01  1.3461348814927E+00  4.2611453509510E-01
    51  5.0000000000000E-01  1.3440476092847E+00  3.9754747300811E-01
    52  5.1000000000000E-01  1.3406284697942E+00  3.6750391650415E-01
    53  5.2000000000000E-01  1.3358916251531E+00  3.3604887505369E-01
    54  5.3000000000000E-01  1.3298529650560E+00  3.0325285511964E-01
    55  5.4000000000000E-01  1.3225300771368E+00  2.6919167701247E-01
    56  5.5000000000000E-01  1.3139422145106E+00  2.3394626080215E-01
    57  5.6000000000000E-01  1.3041102605314E+00  1.9760238214704E-01
    58  5.7000000000000E-01  1.2930566908249E+00  1.6025039913421E-01
    59  5.8000000000000E-01  1.2808055326602E+00  1.2198495145222E-01
    60  5.9000000000000E-01  1.2673823217320E+00  8.2904633436348E-02
    61  6.0000000000000E-01  1.2528140564301E+00  4.3111642733980E-02
    62  6.1000000000000E-01  1.2371291496803E+00  2.7114065334551E-03
    63  6.2000000000000E-01  1.2203573784448E+00 -3.8187812519676E-02
    64  6.3000000000000E-01  1.2025298309783E+00 -7.9475328428438E-02
    65  6.4000000000000E-01  1.1836788519404E+00 -1.2103845953416E-01
    66  6.5000000000000E-01  1.1638379854675E+00 -1.6276296922199E-01
    67  6.6000000000000E-01  1.1430419163178E+00 -2.0453351696378E-01
    68  6.7000000000000E-01  1.1213264092016E+00 -2.4623411693078E-01
    69  6.8000000000000E-01  1.0987282464177E+00 -2.8774860134053E-01
    70  6.9000000000000E-01  1.0752851639178E+00 -3.2896108565700E-01
    71  7.0000000000000E-01  1.0510357859264E+00 -3.6975643274011E-01
    72  7.1000000000000E-01  1.0260195582445E+00 -4.1002071304096E-01
    73  7.2000000000000E-01  1.0002766803712E+00 -4.4964165796247E-01
    74  7.3000000000000E-01  9.7384803657632E-01 -4.8850910355089E-01
    75  7.4000000000000E-01  9.4677512606220E-01 -5.2651542175374E-01
    76  7.5000000000000E-01  9.1909999235224E-01 -5.6355593656956E-01
    77  7.6000000000000E-01  8.9086515204640E-01 -5.9952932252862E-01
    78  7.7000000000000E-01  8.6211352308391E-01 -6.3433798307630E-01
    79  7.8000000000000E-01  8.3288835265434E-01 -6.6788840658425E-01
    80  7.9000000000000E-01  8.0323314489809E-01 -7.0009149788531E-01
    81  8.0000000000000E-01  7.7319158853713E-01 -7.3086288341666E-01
    82  8.1000000000000E-01  7.4280748457620E-01 -7.6012318825868E-01
    83  8.2000000000000E-01  7.1212467421364E-01 -7.8779828357515E-01
    84  8.3000000000000E-01  6.8118696709985E-01 -8.1381950318886E-01
    85  8.4000000000000E-01  6.5003807007947E-01 -8.3812382826645E-01
    86  8.5000000000000E-01  6.1872151655167E-01 -8.6065403933298E-01
    87  8.6000000000000E-01  5.8728059658053E-01 -8.8135883509078E-01
    88  8.7000000000000E-01  5.5575828788504E-01 -9.0019291777277E-01
    89  8.8000000000000E-01  5.2419718783543E-01 -9.1711704502021E-01
    90  8.9000000000000E-01  4.9263944657951E-01 -9.3209804853180E-01
    91  9.0000000000000E-01  4.6112670141930E-01 -9.4510881998637E-01
    92  9.1000000000000E-01  4.2970001255519E-01 -9.5612826499170E-01
    93  9.2000000000000E-01  3.9839980031059E-01 -9.6514122605429E-01
    94  9.3000000000000E-01  3.6726578394674E-01 -9.7213837579918E-01
    95  9.4000000000000E-01  3.3633692217304E-01 -9.7711608189044E-01
    96  9.5000000000000E-01  3.0565135545436E-01 -9.8007624531260E-01
    97  9.6000000000000E-01  2.7524635021228E-01 -9.8102611386717E-01
    98  9.7000000000000E-01  2.4515824501323E-01 -9.7997807291534E-01
    99  9.8000000000000E-01  2.1542239883163E-01 -9.7694941555740E-01
   100  9.9000000000000E-01  1.8607314147207E-01 -9.7196209457812E-01
   101  1.0000000000000E+00  1.5714372622965E-01 -9.6504245860621E-01
   102  1.0100000000000E+00  1.2866628486312E-01 -9.5622097503174E-01
   103  1.0200000000000E+00  1.0067178495082E-01 -9.4553194229933E-01
   104  1.0300000000000E+00  7.3189989694726E-02 -9.3301319424462E-01
   105  1.0400000000000E+00  4.6249420233046E-02 -9.1870579916732E-01
   106  1.0500000000000E+00  1.9877320517304E-02 -9.0265375633657E-01
   107  1.0600000000000E+00 -5.9003751950354E-03 -8.8490369260102E-01
   108  1.0700000000000E+00 -3.1059072186087E-02 -8.6550456173026E-01
   109  1.0800000000000E+00 -5.5575542419601E-02 -8.4450734904315E-01
   110  1.0900000000000E+00 -7.9427948942719E-02 -8.2196478378641E-01
   111  1.1000000000000E+00 -1.0259586751537E-01 -7.9793106161049E-01
   112  1.1100000000000E+00 -1.2506030543998E-01 -7.7246157935315E-01
   113  1.1200000000000E+00 -1.4680371756899E-01 -7.4561268418493E-01
   114  1.1300000000000E+00 -1.6781001947228E-01 -7.1744143899497E-01
   115  1.1400000000000E+00 -1.8806459775167E-01 -6.8800540570322E-01
   116  1.1500000000000E+00 -2.0755431749420E-01 -6.5736244797825E-01
   117  1.1600000000000E+00 -2.2626752686078E-01 -6.2557055461727E-01
   118  1.1700000000000E+00 -2.4419405881176E-01 -5.9268768461472E-01
   119  1.1800000000000E+00 -2.6132522997571E-01 -5.5877163470159E-01
   120  1.1900000000000E+00 -2.7765383667258E-01 -5.2387992989114E-01
   121  1.2000000000000E+00 -2.9317414810752E-01 -4.8806973731085E-01
   122  1.2100000000000E+00 -3.0788189675647E-01 -4.5139780334647E-01
   123  1.2200000000000E+00 -3.2177426596966E-01 -4.1392041386598E-01
   124  1.2300000000000E+00 -3.3484987482442E-01 -3.7569337703866E-01
   125  1.2400000000000E+00 -3.4710876026358E-01 -3.3677202801458E-01
   126  1.2500000000000E+00 -3.5855235656109E-01 -2.9721125448782E-01
   127  1.2600000000000E+00 -3.6918347216180E-01 -2.5706554193401E-01
   128  1.2700000000000E+00 -3.7900626394733E-01 -2.1638903709094E-01
   129  1.2800000000000E+00 -3.8802620898564E-01 -1.7523562804360E-01
   130  1.2900000000000E+00 -3.9625007382715E-01 -1.3365903908322E-01
   131  1.3000000000000E+00 -4.0368588141555E-01 -9.1712938334638E-02
   132  1.3100000000000E+00 -4.1034287568717E-01 -4.9451055991909E-02
   133  1.3200000000000E+00 -4.1623148393803E-01 -6.9273108673501E-03
   134  1.3300000000000E+00 -4.2136327704327E-01  3.5804057152718E-02
   135  1.3400000000000E+00 -4.2575092761900E-01  7.8688351241003E-02
   136  1.3500000000000E+00 -4.2940816622237E-01  1.2167028091051E-01
   137  1.3600000000000E+00 -4.3234973569068E-01  1.6469382704262E-01
   138  1.3700000000000E+00 -4.3459134372599E-01  2.0770211127367E-01
   139  1.3800000000000E+00 -4.3614961383686E-01  2.5063727233887E-01
   140  1.3900000000000E+00 -4.3704203475394E-01  2.9344035193328E-01
   141  1.4000000000000E+00 -4.3728690844144E-01  3.3605119258477E-01
   142  1.4100000000000E+00 -4.3690329683101E-01  3.7840834994295E-01
   143  1.4200000000000E+00 -4.3591096740961E-01  4.2044902177271E-01
   144  1.4300000000000E+00 -4.3433033779725E-01  4.6210899580123E-01
   145  1.4400000000000E+00 -4.3218241945480E-01  5.0332261840434E-01
   146  1.4500000000000E+00 -4.2948876066599E-01  5.4402278593428E-01
   147  1.4600000000000E+00 -4.2627138894154E-01  5.8414096028583E-01
   148  1.4700000000000E+00 -4.2255275299647E-01  6.2360721007511E-01
   149  1.4800000000000E+00 -4.1835566445481E-01  6.6235027856498E-01
   150  1.4900000000000E+00 -4.1370323943849E-01  7.0029767921792E-01
   151  1.5000000000000E+00 -4.0861884019913E-01  7.3737581949003E-01
   152  1.5100000000000E+00 -4.0312601695340E-01  7.7351015320354E-01
   153  1.5200000000000E+00 -3.9724845008364E-01  8.0862536155140E-01
   154  1.5300000000000E+00 -3.9100989286619E-01  8.4264556249909E-01
   155  1.5400000000000E+00 -3.8443411488993E-01  8.7549454805641E-01
   156  1.5500000000000E+00 -3.7754484632710E-01  9.0709604860218E-01
   157  1.5600000000000E+00 -3.7036572321765E-01  9.3737402315622E-01
   158  1.5700000000000E+00 -3.6292023392632E-01  9.6625297421077E-01
   159  1.5800000000000E+00 -3.5523166692971E-01  9.9365828545923E-01
   160  1.5900000000000E+00 -3.4732306008769E-01  1.0195165804972E+00
   161  1.6000000000000E+00 -3.3921715154962E-01  1.0437561003206E+00
   162  1.6100000000000E+00 -3.3093633244200E-01  1.0663070972115E+00
   163  1.6200000000000E+00 -3.2250260147905E-01  1.0871022423872E+00
   164  1.6300000000000E+00 -3.1393752163224E-01  1.1060770445904E+00
   165  1.6400000000000E+00 -3.0526217898851E-01  1.1231702766278E+00
   166  1.6500000000000E+00 -2.9649714392022E-01  1.1383244067121E+00
   167  1.6600000000000E+00 -2.8766243468216E-01  1.1514860313404E+00
   168  1.6700000000000E+00 -2.7877748354290E-01  1.1626063063452E+00
   169  1.6800000000000E+00 -2.6986110554912E-01  1.1716413726861E+00
   170  1.6900000000000E+00 -2.6093147001220E-01  1.1785527735103E+00
   171  1.7000000000000E+00 -2.5200607479629E-01  1.1833078590022E+00
   172  1.7100000000000E+00 -2.4310172347717E-01  1.1858801755629E+00
   173  1.7200000000000E+00 -2.3423450542996E-01  1.1862498359129E+00
   174  1.7300000000000E+00 -2.2541977889253E-01  1.1844038667925E+00
   175  1.7400000000000E+00 -2.1667215704021E-01  1.1803365310492E+00
   176  1.7500000000000E+00 -2.0800549709468E-01  1.1740496210405E+00
   177  1.7600000000000E+00 -1.9943289247842E-01  1.1655527204529E+00
   178  1.7700000000000E+00 -1.9096666801294E-01  1.1548634318363E+00
   179  1.7800000000000E+00 -1.8261837814683E-01  1.1420075673755E+00
   180  1.7900000000000E+00 -1.7439880818648E-01  1.1270193006703E+00
   181  1.8000000000000E+00 -1.6631797848986E-01  1.1099412775684E+00
   182  1.8100000000000E+00 -1.5838515157057E-01  1.0908246843825E+00
   183  1.8200000000000E+00 -1.5060884204691E-01  1.0697292721395E+00
   184  1.8300000000000E+00 -1.4299682935805E-01  1.0467233358296E+00
   185  1.8400000000000E+00 -1.3555617315700E-01  1.0218836479675E+00
   186  1.8500000000000E+00 -1.2829323127793E-01  9.9529534612387E-01
   187  1.8600000000000E+00 -1.2121368016398E-01  9.6705177444583E-01
   188  1.8700000000000E+00 -1.1432253762989E-01  9.3725427954485E-01
   189  1.8800000000000E+00 -1.0762418782350E-01  9.0601196150006E-01
   190  1.8900000000000E+00 -1.0112240823961E-01  8.7344138107843E-01
   191  1.9000000000000E+00 -9.4820398629968E-02  8.3966622464392E-01
   192  1.9100000000000E+00 -8.8720811644439E-02  8.0481692857144E-01
   193  1.9200000000000E+00 -8.2825785029965E-02  7.6903026532581E-01
   194  1.9300000000000E+00 -7.7136975206410E-02  7.3244889369460E-01
   195  1.9400000000000E+00 -7.1655592031883E-02  6.9522087597584E-01
   196  1.9500000000000E+00 -6.6382434564180E-02  6.5749916521512E-01
   197  1.9600000000000E+00 -6.1317927620193E-02  6.1944106586314E-01
   198  1.9700000000000E+00 -5.6462158931182E-02  5.8120767146640E-01
   199  1.9800000000000E+00 -5.1814916708725E-02  5.4296328429227E-01
   200  1.9900000000000E+00 -4.7375727366176E-02  5.0487481887985E-01
   201  2.0000000000000E+00 -4.3143892741429E-02  4.6711116670198E-01
   202  2.0100000000000E+00 -3.9118529356830E-02  4.2984268119128E-01
   203  2.0200000000000E+00 -3.5298599211774E-02  3.9324022801120E-01
   204  2.0300000000000E+00 -3.1682903254548E-02  3.5747221758311E-01
   205  2.0400000000000E+00 -2.8270080797300E-02  3.2270153943165E-01
   206  2.0500000000000E+00 -2.5058647105737E-02  2.8908436521147E-01
   207  2.0600000000000E+00 -2.2047042079128E-02  2.5676959462040E-01
   208  2.0700000000000E+00 -1.9233673353103E-02  2.2589813312306E-01
   209  2.0800000000000E+00 -1.6616958538305E-02  1.9660221604547E-01
   210  2.0900000000000E+00 -1.4195362143284E-02  1.6900497133977E-01
   211  2.1000000000000E+00 -1.1967442386163E-02  1.4321942576206E-01
   212  2.1100000000000E+00 -9.9319130750122E-03  1.1934282927020E-01
   213  2.1200000000000E+00 -8.0876353229626E-03  9.7459084333743E-02
   214  2.1300000000000E+00 -6.4335354939777E-03  7.7653156887416E-02
   215  2.1400000000000E+00 -4.9687773993554E-03  5.9998201454626E-02
   216  2.1500000000000E+00 -3.6927892871597E-03  4.4554401981665E-02
   217  2.1600000000000E+00 -2.6052718453842E-03  3.1369161745750E-02
   218  2.1700000000000E+00 -1.7062126618861E-03  2.0476785907698E-02
   219  2.1800000000000E+00 -9.9628545958525E-04  1.1902802604215E-02
   220  2.1900000000000E+00 -4.7314065029541E-04  5.6208400919563E-03
   221  2.2000000000000E+00 -1.4537476449781E-04  1.7149115993363E-03
   222  2.2100000000000E+00 -1.0726435345058E-05  1.2549808777650E-04
   223  2.2200000000000E+00  6.9470062999925E-06 -8.0990342454233E-05
   224  2.2300000000000E+00 -2.3534677995638E-06  2.7600564051259E-05
   225  2.2400  0. -0.
   226  2.2500  0. -0.
   227  2.2600 -0. -0.
   228  2.2700  0.  0.
   229  2.2800  0.  0.
   230  2.2900  0.  0.
   231  2.3000  0.  0.
   232  2.3100  0.  0.
   233  2.3200  0.  0.
   234  2.3300  0.  0.
   235  2.3400  0.  0.
   236  2.3500  0.  0.
   237  2.3600  0.  0.
   238  2.3700  0.  0.
   239  2.3800  0.  0.
   240  2.3900  0.  0.
   241  2.4000  0.  0.
   242  2.4100  0.  0.
   243  2.4200  0.  0.
   244  2.4300  0.  0.
   245  2.4400  0.  0.
   246  2.4500  0.  0.
   247  2.4600  0.  0.
   248  2.4700  0.  0.
   249  2.4800  0.  0.
   250  2.4900  0.  0.
   251  2.5000  0.  0.
   252  2.5100  0.  0.
   253  2.5200  0.  0.
   254  2.5300  0.  0.
   255  2.5400  0.  0.
   256  2.5500  0.  0.
   257  2.5600  0.  0.
   258  2.5700  0.  0.
   259  2.5800  0.  0.
   260  2.5900  0.  0.
   261  2.6000  0.  0.
   262  2.6100  0.  0.
   263  2.6200  0.  0.
   264  2.6300  0.  0.
   265  2.6400  0.  0.
   266  2.6500  0.  0.
   267  2.6600  0.  0.
   268  2.6700  0.  0.
   269  2.6800  0.  0.
   270  2.6900  0.  0.
   271  2.7000  0.  0.
   272  2.7100  0.  0.
   273  2.7200  0.  0.
   274  2.7300  0.  0.
   275  2.7400  0.  0.
   276  2.7500  0.  0.
   277  2.7600  0.  0.
   278  2.7700  0.  0.
   279  2.7800  0.  0.
   280  2.7900  0.  0.
   281  2.8000  0.  0.
   282  2.8100  0.  0.
   283  2.8200  0.  0.
   284  2.8300  0.  0.
   285  2.8400  0.  0.
   286  2.8500  0.  0.
   287  2.8600  0.  0.
   288  2.8700  0.  0.
   289  2.8800  0.  0.
   290  2.8900  0.  0.
   291  2.9000  0.  0.
   292  2.9100  0.  0.
   293  2.9200  0.  0.
   294  2.9300  0.  0.
   295  2.9400  0.  0.
   296  2.9500  0.  0.
   297  2.9600  0.  0.
   298  2.9700  0.  0.
   299  2.9800  0.  0.
   300  2.9900  0.  0.
   301  3.0000  0.  0.
   302  3.0100  0.  0.
   303  3.0200  0.  0.
   304  3.0300  0.  0.
   305  3.0400  0.  0.
   306  3.0500  0.  0.
   307  3.0600  0.  0.
   308  3.0700  0.  0.
   309  3.0800  0.  0.
   310  3.0900  0.  0.
   311  3.1000  0.  0.
   312  3.1100  0.  0.
   313  3.1200  0.  0.
   314  3.1300  0.  0.
   315  3.1400  0.  0.
   316  3.1500  0.  0.
   317  3.1600  0.  0.
   318  3.1700  0.  0.
   319  3.1800  0.  0.
   320  3.1900  0.  0.
   321  3.2000  0.  0.
   322  3.2100  0.  0.
   323  3.2200  0.  0.
   324  3.2300  0.  0.
   325  3.2400  0.  0.
   326  3.2500  0.  0.
   327  3.2600  0.  0.
   328  3.2700  0.  0.
   329  3.2800  0.  0.
   330  3.2900  0.  0.
   331  3.3000  0.  0.
   332  3.3100  0.  0.
   333  3.3200  0.  0.
   334  3.3300  0.  0.
   335  3.3400  0.  0.
   336  3.3500  0.  0.
   337  3.3600  0.  0.
   338  3.3700  0.  0.
   339  3.3800  0.  0.
   340  3.3900  0.  0.
   341  3.4000  0.  0.
   342  3.4100  0.  0.
   343  3.4200  0.  0.
   344  3.4300  0.  0.
   345  3.4400  0.  0.
   346  3.4500  0.  0.
   347  3.4600  0.  0.
   348  3.4700  0.  0.
   349  3.4800  0.  0.
   350  3.4900  0.  0.
   351  3.5000  0.  0.
   352  3.5100  0.  0.
   353  3.5200  0.  0.
   354  3.5300  0.  0.
   355  3.5400  0.  0.
   356  3.5500  0.  0.
   357  3.5600  0.  0.
   358  3.5700  0.  0.
   359  3.5800  0.  0.
   360  3.5900  0.  0.
   361  3.6000  0.  0.
   362  3.6100  0.  0.
   363  3.6200  0.  0.
   364  3.6300  0.  0.
   365  3.6400  0.  0.
   366  3.6500  0.  0.
   367  3.6600  0.  0.
   368  3.6700  0.  0.
   369  3.6800  0.  0.
   370  3.6900  0.  0.
   371  3.7000  0.  0.
   372  3.7100  0.  0.
   373  3.7200  0.  0.
   374  3.7300  0.  0.
   375  3.7400  0.  0.
   376  3.7500  0.  0.
   377  3.7600  0.  0.
   378  3.7700  0.  0.
   379  3.7800  0.  0.
   380  3.7900  0.  0.
   381  3.8000  0.  0.
   382  3.8100  0.  0.
   383  3.8200  0.  0.
   384  3.8300  0.  0.
   385  3.8400  0.  0.
   386  3.8500  0.  0.
   387  3.8600  0.  0.
   388  3.8700  0.  0.
   389  3.8800  0.  0.
   390  3.8900  0.  0.
   391  3.9000  0.  0.
   392  3.9100  0.  0.
   393  3.9200  0.  0.
   394  3.9300  0.  0.
   395  3.9400  0.  0.
   396  3.9500  0.  0.
   397  3.9600  0.  0.
   398  3.9700  0.  0.
   399  3.9800  0.  0.
   400  3.9900  0.  0.
   401  4.0000  0.  0.
   402  4.0100  0.  0.
   403  4.0200  0.  0.
   404  4.0300  0.  0.
   405  4.0400  0.  0.
   406  4.0500  0.  0.
   407  4.0600  0.  0.
   408  4.0700  0.  0.
   409  4.0800  0.  0.
   410  4.0900  0.  0.
   411  4.1000  0.  0.
   412  4.1100  0.  0.
   413  4.1200  0.  0.
   414  4.1300  0.  0.
   415  4.1400  0.  0.
   416  4.1500  0.  0.
   417  4.1600  0.  0.
   418  4.1700  0.  0.
   419  4.1800  0.  0.
   420  4.1900  0.  0.
   421  4.2000  0.  0.
   422  4.2100  0.  0.
   423  4.2200  0.  0.
   424  4.2300  0.  0.
   425  4.2400  0.  0.
   426  4.2500  0.  0.
   427  4.2600  0.  0.
   428  4.2700  0.  0.
   429  4.2800  0.  0.
   430  4.2900  0.  0.
   431  4.3000  0.  0.
   432  4.3100  0.  0.
   433  4.3200  0.  0.
   434  4.3300  0.  0.
   435  4.3400  0.  0.
   436  4.3500  0.  0.
   437  4.3600  0.  0.
   438  4.3700  0.  0.
   439  4.3800  0.  0.
   440  4.3900  0.  0.
   441  4.4000  0.  0.
   442  4.4100  0.  0.
   443  4.4200  0.  0.
   444  4.4300  0.  0.
   445  4.4400  0.  0.
   446  4.4500  0.  0.
   447  4.4600  0.  0.
   448  4.4700  0.  0.
   449  4.4800  0.  0.
   450  4.4900  0.  0.
   451  4.5000  0.  0.
   452  4.5100  0.  0.
   453  4.5200  0.  0.
   454  4.5300  0.  0.
   455  4.5400  0.  0.
   456  4.5500  0.  0.
   457  4.5600  0.  0.
   458  4.5700  0.  0.
   459  4.5800  0.  0.
   460  4.5900  0.  0.
   461  4.6000  0.  0.
   462  4.6100  0.  0.
   463  4.6200  0.  0.
   464  4.6300  0.  0.
   465  4.6400  0.  0.
   466  4.6500  0.  0.
   467  4.6600  0.  0.
   468  4.6700  0.  0.
   469  4.6800  0.  0.
   470  4.6900  0.  0.
   471  4.7000  0.  0.
   472  4.7100  0.  0.
   473  4.7200  0.  0.
   474  4.7300  0.  0.
   475  4.7400  0.  0.
   476  4.7500  0.  0.
   477  4.7600  0.  0.
   478  4.7700  0.  0.
   479  4.7800  0.  0.
   480  4.7900  0.  0.
   481  4.8000  0.  0.
   482  4.8100  0.  0.
   483  4.8200  0.  0.
   484  4.8300  0.  0.
   485  4.8400  0.  0.
   486  4.8500  0.  0.
   487  4.8600  0.  0.
   488  4.8700  0.  0.
   489  4.8800  0.  0.
   490  4.8900  0.  0.
   491  4.9000  0.  0.
   492  4.9100  0.  0.
   493  4.9200  0.  0.
   494  4.9300  0.  0.
   495  4.9400  0.  0.
   496  4.9500  0.  0.
   497  4.9600  0.  0.
   498  4.9700  0.  0.
   499  4.9800  0.  0.
   500  4.9900  0.  0.
   501  5.0000  0.  0.
   502  5.0100  0.  0.
   503  5.0200  0.  0.
   504  5.0300  0.  0.
   505  5.0400  0.  0.
   506  5.0500  0.  0.
   507  5.0600  0.  0.
   508  5.0700  0.  0.
   509  5.0800  0.  0.
   510  5.0900  0.  0.
   511  5.1000  0.  0.
   512  5.1100  0.  0.
   513  5.1200  0.  0.
   514  5.1300  0.  0.
   515  5.1400  0.  0.
   516  5.1500  0.  0.
   517  5.1600  0.  0.
   518  5.1700  0.  0.
   519  5.1800  0.  0.
   520  5.1900  0.  0.
   521  5.2000  0.  0.
   522  5.2100  0.  0.
   523  5.2200  0.  0.
   524  5.2300  0.  0.
   525  5.2400  0.  0.
   526  5.2500  0.  0.
   527  5.2600  0.  0.
   528  5.2700  0.  0.
   529  5.2800  0.  0.
   530  5.2900  0.  0.
   531  5.3000  0.  0.
   532  5.3100  0.  0.
   533  5.3200  0.  0.
   534  5.3300  0.  0.
   535  5.3400  0.  0.
   536  5.3500  0.  0.
   537  5.3600  0.  0.
   538  5.3700  0.  0.
   539  5.3800  0.  0.
   540  5.3900  0.  0.
   541  5.4000  0.  0.
   542  5.4100  0.  0.
   543  5.4200  0.  0.
   544  5.4300  0.  0.
   545  5.4400  0.  0.
   546  5.4500  0.  0.
   547  5.4600  0.  0.
   548  5.4700  0.  0.
   549  5.4800  0.  0.
   550  5.4900  0.  0.
   551  5.5000  0.  0.
   552  5.5100  0.  0.
   553  5.5200  0.  0.
   554  5.5300  0.  0.
   555  5.5400  0.  0.
   556  5.5500  0.  0.
   557  5.5600  0.  0.
   558  5.5700  0.  0.
   559  5.5800  0.  0.
   560  5.5900  0.  0.
   561  5.6000  0.  0.
   562  5.6100  0.  0.
   563  5.6200  0.  0.
   564  5.6300  0.  0.
   565  5.6400  0.  0.
   566  5.6500  0.  0.
   567  5.6600  0.  0.
   568  5.6700  0.  0.
   569  5.6800  0.  0.
   570  5.6900  0.  0.
   571  5.7000  0.  0.
   572  5.7100  0.  0.
   573  5.7200  0.  0.
   574  5.7300  0.  0.
   575  5.7400  0.  0.
   576  5.7500  0.  0.
   577  5.7600  0.  0.
   578  5.7700  0.  0.
   579  5.7800  0.  0.
   580  5.7900  0.  0.
   581  5.8000  0.  0.
   582  5.8100  0.  0.
   583  5.8200  0.  0.
   584  5.8300  0.  0.
   585  5.8400  0.  0.
   586  5.8500  0.  0.
   587  5.8600  0.  0.
   588  5.8700  0.  0.
   589  5.8800  0.  0.
   590  5.8900  0.  0.
   591  5.9000  0.  0.
   592  5.9100  0.  0.
   593  5.9200  0.  0.
   594  5.9300  0.  0.
   595  5.9400  0.  0.
   596  5.9500  0.  0.
   597  5.9600  0.  0.
   598  5.9700  0.  0.
   599  5.9800  0.  0.
   600  5.9900  0.  0.
   1                         1.2951980886879E+00 -2.4651391988801E-01
     1  0.0000000000000E+00  1.3343516014341E-09  4.5586762489891E-10
     2  1.0000000000000E-02  1.1033533572690E-03  9.0146918394900E-05
     3  2.0000000000000E-02  4.4082809615078E-03  3.6018354575390E-04
     4  3.0000000000000E-02  9.8994358923154E-03  8.0891080282183E-04
     5  4.0000000000000E-02  1.7551407457084E-02  1.4343743067357E-03
     6  5.0000000000000E-02  2.7328969783691E-02  2.2339295726520E-03
     7  6.0000000000000E-02  3.9187424556798E-02  3.2043314685306E-03
     8  7.0000000000000E-02  5.3073032709222E-02  4.3418461344328E-03
     9  8.0000000000000E-02  6.8923528545525E-02  5.6423831218263E-03
    10  9.0000000000000E-02  8.6668708548023E-02  7.1016450920680E-03
    11  1.0000000000000E-01  1.0623108601679E-01  8.7152920447389E-03
    12  1.1000000000000E-01  1.2752660174211E-01  1.0479116731602E-02
    13  1.2000000000000E-01  1.5046538011704E-01  1.2389227657320E-02
    14  1.3000000000000E-01  1.7495251948116E-01  1.4442235877416E-02
    15  1.4000000000000E-01  2.0088890505562E-01  1.6635441682077E-02
    16  1.5000000000000E-01  2.2817203259009E-01  1.8967017202303E-02
    17  1.6000000000000E-01  2.5669683079932E-01  2.1436180995424E-02
    18  1.7000000000000E-01  2.8635647082014E-01  2.4043360758549E-02
    19  1.8000000000000E-01  3.1704315126791E-01  2.6790340481269E-02
    20  1.9000000000000E-01  3.4864884800662E-01  2.9680388579350E-02
    21  2.0000000000000E-01  3.8106601846267E-01  3.2718363846126E-02
    22  2.1000000000000E-01  4.1418825119467E-01  3.5910796413156E-02
    23  2.2000000000000E-01  4.4791085246702E-01  3.9265941320124E-02
    24  2.3000000000000E-01  4.8213136274567E-01  4.2793802749604E-02
    25  2.4000000000000E-01  5.1674999732075E-01  4.6506127477593E-02
    26  2.5000000000000E-01  5.5167000664162E-01  5.0416366616745E-02
    27  2.6000000000000E-01  5.8679795340134E-01  5.4539605277914E-02
    28  2.7000000000000E-01  6.2204390490598E-01  5.8892460336903E-02
    29  2.8000000000000E-01  6.5732154078388E-01  6.3492947057955E-02
    30  2.9000000000000E-01  6.9254817760557E-01  6.8360315883690E-02
    31  3.0000000000000E-01  7.2764471347052E-01  7.3514861243210E-02
    32  3.1000000000000E-01  7.6253549704744E-01  7.8977704746418E-02
    33  3.2000000000000E-01  7.9714812690600E-01  8.4770555614249E-02
    34  3.3000000000000E-01  8.3141318822601E-01  9.0915451632848E-02
    35  3.4000000000000E-01  8.6526393509455E-01  9.7434484306782E-02
    36  3.5000000000000E-01  8.9863592758220E-01  1.0434951221529E-01
    37  3.6000000000000E-01  9.3146663360947E-01  1.1168186683984E-01
    38  3.7000000000000E-01  9.6369500625912E-01  1.1945205532628E-01
    39  3.8000000000000E-01  9.9526104764777E-01  1.2767946476610E-01
    40  3.9000000000000E-01  1.0261053707322E+00  1.3638207262644E-01
    41  4.0000000000000E-01  1.0561687704868E+00  1.4557616792603E-01
    42  4.1000000000000E-01  1.0853918157470E+00  1.5527608764339E-01
    43  4.2000000000000E-01  1.1137144726699E+00  1.6549397265681E-01
    44  4.3000000000000E-01  1.1410757702222E+00  1.7623954725334E-01
    45  4.4000000000000E-01  1.1674135173776E+00  1.8751992591233E-01
    46  4.5000000000000E-01  1.1926640807977E+00  1.9933945067044E-01
    47  4.6000000000000E-01  1.2167622307005E+00  2.1169956191795E-01
    48  4.7000000000000E-01  1.2396410614040E+00  2.2459870496523E-01
    49  4.8000000000000E-01  1.2612319916886E+00  2.3803227416421E-01
    50  4.9000000000000E-01  1.2814648486754E+00  2.5199259577876E-01
    51  5.0000000000000E-01  1.3002680373858E+00  2.6646895018197E-01
    52  5.1000000000000E-01  1.3175687965656E+00  2.8144763332549E-01
    53  5.2000000000000E-01  1.3332935397400E+00  2.9691205678867E-01
    54  5.3000000000000E-01  1.3473682788507E+00  3.1284288508187E-01
    55  5.4000000000000E-01  1.3597191262341E+00  3.2921820826172E-01
    56  5.5000000000000E-01  1.3702728691588E+00  3.4601374732458E-01
    57  5.6000000000000E-01  1.3789576096807E+00  3.6320308929028E-01
    58  5.7000000000000E-01  1.3857034612149E+00  3.8075794837917E-01
    59  5.8000000000000E-01  1.3904432919934E+00  3.9864844923177E-01
    60  5.9000000000000E-01  1.3931135044984E+00  4.1684342772960E-01
    61  6.0000000000000E-01  1.3936548390478E+00  4.3531074465483E-01
    62  6.1000000000000E-01  1.3920131889830E+00  4.5401760718219E-01
    63  6.2000000000000E-01  1.3881404143881E+00  4.7293089303320E-01
    64  6.3000000000000E-01  1.3819951409480E+00  4.9201747204392E-01
    65  6.4000000000000E-01  1.3735435304651E+00  5.1124451990596E-01
    66  6.5000000000000E-01  1.3627600096744E+00  5.3057981893584E-01
    67  6.6000000000000E-01  1.3496279443508E+00  5.4999204091111E-01
    68  6.7000000000000E-01  1.3341402462701E+00  5.6945100727880E-01
    69  6.8000000000000E-01  1.3162999013686E+00  5.8892792239130E-01
    70  6.9000000000000E-01  1.2961204084311E+00  6.0839557584999E-01
    71  7.0000000000000E-01  1.2736261188094E+00  6.2782851053253E-01
    72  7.1000000000000E-01  1.2488524690223E+00  6.4720315343876E-01
    73  7.2000000000000E-01  1.2218460995823E+00  6.6649790710222E-01
    74  7.3000000000000E-01  1.1926648550211E+00  6.8569319997228E-01