Nb    ONCVPSP-4.0.1  r_core=   1.69898   1.72974   1.55317
     41.0000     13.0000      210704    zatom,zion,pspd
     8      11   2     4   600     0    pspcod,pspxc,lmax,lloc,mmax,r2well
  5.99000000  5.00000000  0.00000000    rchrg fchrg qchrg
     2     2     2     0     0    nproj
     1     1           extension_switch
   0                         9.9156542147107E+00  1.1148116802094E+00
     1  0.0000000000000E+00 -3.0760283209474E-11  1.3924664199472E-10
     2  1.0000000000000E-02  5.7673468587097E-02 -2.7220353760829E-02
     3  2.0000000000000E-02  1.1525972370449E-01 -5.4328145289513E-02
     4  3.0000000000000E-02  1.7267172498523E-01 -8.1211284146168E-02
     5  4.0000000000000E-02  2.2982277751934E-01 -1.0775861998339E-01
     6  5.0000000000000E-02  2.8662670271882E-01 -1.3386040389811E-01
     7  6.0000000000000E-02  3.4299800696862E-01 -1.5940873945004E-01
     8  7.0000000000000E-02  3.9885204736202E-01 -1.8429802006709E-01
     9  8.0000000000000E-02  4.5410519384986E-01 -2.0842534969796E-01
    10  9.0000000000000E-02  5.0867498717064E-01 -2.3169094374296E-01
    11  1.0000000000000E-01  5.6248029197293E-01 -2.5399850749612E-01
    12  1.1000000000000E-01  6.1544144459207E-01 -2.7525558956146E-01
    13  1.2000000000000E-01  6.6748039499862E-01 -2.9537390796161E-01
    14  1.3000000000000E-01  7.1852084249716E-01 -3.1426964693603E-01
    15  1.4000000000000E-01  7.6848836481807E-01 -3.3186372272448E-01
    16  1.5000000000000E-01  8.1731054031340E-01 -3.4808201694749E-01
    17  1.6000000000000E-01  8.6491706303799E-01 -3.6285557652448E-01
    18  1.7000000000000E-01  9.1123985056893E-01 -3.7612077940995E-01
    19  1.8000000000000E-01  9.5621314448937E-01 -3.8781946577382E-01
    20  1.9000000000000E-01  9.9977360353486E-01 -3.9789903460075E-01
    21  2.0000000000000E-01  1.0418603894717E+00 -4.0631250603025E-01
    22  2.1000000000000E-01  1.0824152458464E+00 -4.1301855010285E-01
    23  2.2000000000000E-01  1.1213825698113E+00 -4.1798148291067E-01
    24  2.3000000000000E-01  1.1587094772946E+00 -4.2117123147314E-01
    25  2.4000000000000E-01  1.1943458618396E+00 -4.2256326896395E-01
    26  2.5000000000000E-01  1.2282444474929E+00 -4.2213852220171E-01
    27  2.6000000000000E-01  1.2603608361650E+00 -4.1988325358073E-01
    28  2.7000000000000E-01  1.2906535499282E+00 -4.1578891985601E-01
    29  2.8000000000000E-01  1.3190840687476E+00 -4.0985201040630E-01
    30  2.9000000000000E-01  1.3456168641665E+00 -4.0207386777737E-01
    31  3.0000000000000E-01  1.3702194294810E+00 -3.9246049345263E-01
    32  3.1000000000000E-01  1.3928623069475E+00 -3.8102234190886E-01
    33  3.2000000000000E-01  1.4135191125647E+00 -3.6777410608730E-01
    34  3.3000000000000E-01  1.4321665589581E+00 -3.5273449744692E-01
    35  3.4000000000000E-01  1.4487844768779E+00 -3.3592602376307E-01
    36  3.5000000000000E-01  1.4633558357892E+00 -3.1737476779343E-01
    37  3.6000000000000E-01  1.4758667639965E+00 -2.9711016985277E-01
    38  3.7000000000000E-01  1.4863065686957E+00 -2.7516481721932E-01
    39  3.8000000000000E-01  1.4946677562945E+00 -2.5157424314019E-01
    40  3.9000000000000E-01  1.5009460532754E+00 -2.2637673801176E-01
    41  4.0000000000000E-01  1.5051404278094E+00 -1.9961317508538E-01
    42  4.1000000000000E-01  1.5072531122497E+00 -1.7132685279238E-01
    43  4.2000000000000E-01  1.5072896265539E+00 -1.4156335549546E-01
    44  4.3000000000000E-01  1.5052588025979E+00 -1.1037043416237E-01
    45  4.4000000000000E-01  1.5011728092527E+00 -7.7797908121933E-02
    46  4.5000000000000E-01  1.4950471780070E+00 -4.3897588709649E-02
    47  4.6000000000000E-01  1.4869008288212E+00 -8.7232252401014E-03
    48  4.7000000000000E-01  1.4767560958068E+00  2.7669526635823E-02
    49  4.8000000000000E-01  1.4646387522344E+00  6.5223114518119E-02
    50  4.9000000000000E-01  1.4505780342796E+00  1.0387807750651E-01
    51  5.0000000000000E-01  1.4346066628350E+00  1.4357301421474E-01
    52  5.1000000000000E-01  1.4167608626303E+00  1.8424453203260E-01
    53  5.2000000000000E-01  1.3970803778315E+00  2.2582717948484E-01
    54  5.3000000000000E-01  1.3756084832203E+00  2.6825336388625E-01
    55  5.4000000000000E-01  1.3523919899960E+00  3.1145325682083E-01
    56  5.5000000000000E-01  1.3274812451949E+00  3.5535469027657E-01
    57  5.6000000000000E-01  1.3009301236812E+00  3.9988304654033E-01
    58  5.7000000000000E-01  1.2727960116381E+00  4.4496114519648E-01
    59  5.8000000000000E-01  1.2431397804744E+00  4.9050913077561E-01
    60  5.9000000000000E-01  1.2120257500585E+00  5.3644436475947E-01
    61  6.0000000000000E-01  1.1795216402082E+00  5.8268132576624E-01
    62  6.1000000000000E-01  1.1456985093897E+00  6.2913152181049E-01
    63  6.2000000000000E-01  1.1106306796222E+00  6.7570341855472E-01
    64  6.3000000000000E-01  1.0743956466420E+00  7.2230238744153E-01
    65  6.4000000000000E-01  1.0370739744512E+00  7.6883067751723E-01
    66  6.5000000000000E-01  9.9874917346368E-01  8.1518741462794E-01
    67  6.6000000000000E-01  9.5950756156058E-01  8.6126863148715E-01
    68  6.7000000000000E-01  9.1943810748459E-01  9.0696733188356E-01
    69  6.8000000000000E-01  8.7863225612761E-01  9.5217359201589E-01
    70  6.9000000000000E-01  8.3718373540901E-01  9.9677470161347E-01
    71  7.0000000000000E-01  7.9518834459177E-01  1.0406553471289E+00
    72  7.1000000000000E-01  7.5274372404613E-01  1.0836978388733E+00
    73  7.2000000000000E-01  7.0994910664037E-01  1.1257823835127E+00
    74  7.3000000000000E-01  6.6690505111608E-01  1.1667874028560E+00
    75  7.4000000000000E-01  6.2371315798872E-01  1.2065898993483E+00
    76  7.5000000000000E-01  5.8047576870109E-01  1.2450658681436E+00
    77  7.6000000000000E-01  5.3729564894687E-01  1.2820907550689E+00
    78  7.7000000000000E-01  4.9427565727088E-01  1.3175399592196E+00
    79  7.8000000000000E-01  4.5151840024024E-01  1.3512893783453E+00
    80  7.9000000000000E-01  4.0912587566465E-01  1.3832159946034E+00
    81  8.0000000000000E-01  3.6719910552187E-01  1.4131984976831E+00
    82  8.1000000000000E-01  3.2583776041482E-01  1.4411179417374E+00
    83  8.2000000000000E-01  2.8513977754660E-01  1.4668584320175E+00
    84  8.3000000000000E-01  2.4520097434854E-01  1.4903078365840E+00
    85  8.4000000000000E-01  2.0611466003014E-01  1.5113585179812E+00
    86  8.5000000000000E-01  1.6797124743931E-01  1.5299080793120E+00
    87  8.6000000000000E-01  1.3085786772193E-01  1.5458601187456E+00
    88  8.7000000000000E-01  9.4857990352951E-02  1.5591249861310E+00
    89  8.8000000000000E-01  6.0051051172471E-02  1.5696205350945E+00
    90  8.9000000000000E-01  2.6512091101072E-02  1.5772728637483E+00
    91  9.0000000000000E-01 -5.6885917741807E-03  1.5820170369694E+00
    92  9.1000000000000E-01 -3.6485774057547E-02  1.5837977830878E+00
    93  9.2000000000000E-01 -6.5819620191536E-02  1.5825701577892E+00
    94  9.3000000000000E-01 -9.3635974293006E-02  1.5783001680646E+00
    95  9.4000000000000E-01 -1.1988662815910E-01  1.5709653491478E+00
    96  9.5000000000000E-01 -1.4452956302814E-01  1.5605552875597E+00
    97  9.6000000000000E-01 -1.6752916281045E-01  1.5470720836355E+00
    98  9.7000000000000E-01 -1.8885639665710E-01  1.5305307472362E+00
    99  9.8000000000000E-01 -2.0848896891121E-01  1.5109595207505E+00
   100  9.9000000000000E-01 -2.2641143468454E-01  1.4884001239590E+00
   101  1.0000000000000E+00 -2.4261527952117E-01  1.4629079158719E+00
   102  1.0100000000000E+00 -2.5709896184802E-01  1.4345519692477E+00
   103  1.0200000000000E+00 -2.6986791716663E-01  1.4034150541565E+00
   104  1.0300000000000E+00 -2.8093452321137E-01  1.3695935276603E+00
   105  1.0400000000000E+00 -2.9031802558155E-01  1.3331971274316E+00
   106  1.0500000000000E+00 -2.9804442364877E-01  1.2943486679265E+00
   107  1.0600000000000E+00 -3.0414631684203E-01  1.2531836385499E+00
   108  1.0700000000000E+00 -3.0866271171912E-01  1.2098497040951E+00
   109  1.0800000000000E+00 -3.1163879054198E-01  1.1645061086026E+00
   110  1.0900000000000E+00 -3.1312564238125E-01  1.1173229846511E+00
   111  1.1000000000000E+00 -3.1317995807995E-01  1.0684805709560E+00
   112  1.1100000000000E+00 -3.1186369070409E-01  1.0181683420099E+00
   113  1.1200000000000E+00 -3.0924368339611E-01  9.6658405432917E-01
   114  1.1300000000000E+00 -3.0539126682346E-01  9.1393271467894E-01
   115  1.1400000000000E+00 -3.0038182867450E-01  8.6042547641503E-01
   116  1.1500000000000E+00 -2.9429435789721E-01  8.0627847080276E-01
   117  1.1600000000000E+00 -2.8721096659743E-01  7.5171158083947E-01
   118  1.1700000000000E+00 -2.7921639271246E-01  6.9694716571224E-01
   119  1.1800000000000E+00 -2.7039748674901E-01  6.4220874455777E-01
   120  1.1900000000000E+00 -2.6084268602054E-01  5.8771964865045E-01
   121  1.2000000000000E+00 -2.5064147993576E-01  5.3370165152350E-01
   122  1.2100000000000E+00 -2.3988386997585E-01  4.8037358681794E-01
   123  1.2200000000000E+00 -2.2865982805226E-01  4.2794996385526E-01
   124  1.2300000000000E+00 -2.1705875695785E-01  3.7663959103470E-01
   125  1.2400000000000E+00 -2.0516895661186E-01  3.2664421716582E-01
   126  1.2500000000000E+00 -1.9307709975259E-01  2.7815720075661E-01
   127  1.2600000000000E+00 -1.8086772065243E-01  2.3136221709158E-01
   128  1.2700000000000E+00 -1.6862272031556E-01  1.8643201264689E-01
   129  1.2800000000000E+00 -1.5642089147321E-01  1.4352721600819E-01
   130  1.2900000000000E+00 -1.4433746651383E-01  1.0279521398285E-01
   131  1.3000000000000E+00 -1.3244369127740E-01  6.4369101030800E-02
   132  1.3100000000000E+00 -1.2080642740656E-01  2.8366709488150E-02
   133  1.3200000000000E+00 -1.0948778568583E-01 -5.1102726697566E-03
   134  1.3300000000000E+00 -9.8544792511739E-02 -3.5977090585858E-02
   135  1.3400000000000E+00 -8.8029091329077E-02 -6.4166612726225E-02
   136  1.3500000000000E+00 -7.7986680541111E-02 -8.9629918385987E-02
   137  1.3600000000000E+00 -6.8457689059151E-02 -1.1233677932331E-01
   138  1.3700000000000E+00 -5.9476190300219E-02 -1.3227603336660E-01
   139  1.3800000000000E+00 -5.1070055077913E-02 -1.4945584888106E-01
   140  1.3900000000000E+00 -4.3260843460317E-02 -1.6390388004680E-01
   141  1.4000000000000E+00 -3.6063735297710E-02 -1.7566731396831E-01
   142  1.4100000000000E+00 -2.9487498749662E-02 -1.8481281171179E-01
   143  1.4200000000000E+00 -2.3534495776561E-02 -1.9142634641938E-01
   144  1.4300000000000E+00 -1.8200723137393E-02 -1.9561294296198E-01
   145  1.4400000000000E+00 -1.3475886891511E-02 -1.9749632538233E-01
   146  1.4500000000000E+00 -9.3435155321701E-03 -1.9721844813686E-01
   147  1.4600000000000E+00 -5.7810791304856E-03 -1.9493904533929E-01
   148  1.4700000000000E+00 -2.7607535584326E-03 -1.9083250284119E-01
   149  1.4800000000000E+00 -2.5100729590593E-04 -1.8508143819786E-01
   150  1.4900000000000E+00  1.7825273457422E-03 -1.7787352272693E-01
   151  1.5000000000000E+00  3.3766000124615E-03 -1.6940013095733E-01
   152  1.5100000000000E+00  4.5698496500737E-03 -1.5985484880017E-01
   153  1.5200000000000E+00  5.4023080704324E-03 -1.4943198379712E-01
   154  1.5300000000000E+00  5.9148983818374E-03 -1.3832506534402E-01
   155  1.5400000000000E+00  6.1489325905931E-03 -1.2672534737608E-01
   156  1.5500000000000E+00  6.1456125453146E-03 -1.1482032538648E-01
   157  1.5600000000000E+00  5.9455383461165E-03 -1.0279227949510E-01
   158  1.5700000000000E+00  5.5882282498912E-03 -9.0816855008607E-02
   159  1.5800000000000E+00  5.1116540774845E-03 -7.9061691935521E-02
   160  1.5900000000000E+00  4.5517968595130E-03 -6.7685116696738E-02
   161  1.6000000000000E+00  3.9422183534506E-03 -5.6834885809898E-02
   162  1.6100000000000E+00  3.3136837768959E-03 -4.6647073624337E-02
   163  1.6200000000000E+00  2.6922426268234E-03 -3.7240985032637E-02
   164  1.6300000000000E+00  2.0969535988081E-03 -2.8712946326461E-02
   165  1.6400000000000E+00  1.5503078079881E-03 -2.1163256501105E-02
   166  1.6500000000000E+00  1.0710182882634E-03 -1.4677822512512E-02
   167  1.6600000000000E+00  6.7306782181662E-04 -9.3255789368338E-03
   168  1.6700000000000E+00  3.6556453837527E-04 -5.1584325804546E-03
   169  1.6800000000000E+00  1.5229062487730E-04 -2.2055745248662E-03
   170  1.6900000000000E+00  3.3292947134189E-05 -4.9940654568240E-04
   171  1.7000000000000E+00 -9.7264278328841E-07  1.5071270019436E-05
   172  1.7100000000000E+00  1.9636550850983E-07 -3.0008893806362E-06
   173  1.72 -0.  0.
   174  1.73 -0. -0.
   175  1.74 -0. -0.
   176  1.75  0.  0.
   177  1.76  0.  0.
   178  1.77  0.  0.
   179  1.78  0.  0.
   180  1.79  0.  0.
   181  1.80  0.  0.
   182  1.81  0.  0.
   183  1.82  0.  0.
   184  1.83  0.  0.
   185  1.84  0.  0.
   186  1.85  0.  0.
   187  1.86  0.  0.
   188  1.87  0.  0.
   189  1.88  0.  0.
   190  1.89  0.  0.
   191  1.90  0.  0.
   192  1.91  0.  0.
   193  1.92  0.  0.
   194  1.93  0.  0.
   195  1.94  0.  0.
   196  1.95  0.  0.
   197  1.96  0.  0.
   198  1.97  0.  0.
   199  1.98  0.  0.
   200  1.99  0.  0.
   201  2.00  0.  0.
   202  2.01  0.  0.
   203  2.02  0.  0.
   204  2.03  0.  0.
   205  2.04  0.  0.
   206  2.05  0.  0.
   207  2.06  0.  0.
   208  2.07  0.  0.
   209  2.08  0.  0.
   210  2.09  0.  0.
   211  2.10  0.  0.
   212  2.11  0.  0.
   213  2.12  0.  0.
   214  2.13  0.  0.
   215  2.14  0.  0.
   216  2.15  0.  0.
   217  2.16  0.  0.
   218  2.17  0.  0.
   219  2.18  0.  0.
   220  2.19  0.  0.
   221  2.20  0.  0.
   222  2.21  0.  0.
   223  2.22  0.  0.
   224  2.23  0.  0.
   225  2.24  0.  0.
   226  2.25  0.  0.
   227  2.26  0.  0.
   228  2.27  0.  0.
   229  2.28  0.  0.
   230  2.29  0.  0.
   231  2.30  0.  0.
   232  2.31  0.  0.
   233  2.32  0.  0.
   234  2.33  0.  0.
   235  2.34  0.  0.
   236  2.35  0.  0.
   237  2.36  0.  0.
   238  2.37  0.  0.
   239  2.38  0.  0.
   240  2.39  0.  0.
   241  2.40  0.  0.
   242  2.41  0.  0.
   243  2.42  0.  0.
   244  2.43  0.  0.
   245  2.44  0.  0.
   246  2.45  0.  0.
   247  2.46  0.  0.
   248  2.47  0.  0.
   249  2.48  0.  0.
   250  2.49  0.  0.
   251  2.50  0.  0.
   252  2.51  0.  0.
   253  2.52  0.  0.
   254  2.53  0.  0.
   255  2.54  0.  0.
   256  2.55  0.  0.
   257  2.56  0.  0.
   258  2.57  0.  0.
   259  2.58  0.  0.
   260  2.59  0.  0.
   261  2.60  0.  0.
   262  2.61  0.  0.
   263  2.62  0.  0.
   264  2.63  0.  0.
   265  2.64  0.  0.
   266  2.65  0.  0.
   267  2.66  0.  0.
   268  2.67  0.  0.
   269  2.68  0.  0.
   270  2.69  0.  0.
   271  2.70  0.  0.
   272  2.71  0.  0.
   273  2.72  0.  0.
   274  2.73  0.  0.
   275  2.74  0.  0.
   276  2.75  0.  0.
   277  2.76  0.  0.
   278  2.77  0.  0.
   279  2.78  0.  0.
   280  2.79  0.  0.
   281  2.80  0.  0.
   282  2.81  0.  0.
   283  2.82  0.  0.
   284  2.83  0.  0.
   285  2.84  0.  0.
   286  2.85  0.  0.
   287  2.86  0.  0.
   288  2.87  0.  0.
   289  2.88  0.  0.
   290  2.89  0.  0.
   291  2.90  0.  0.
   292  2.91  0.  0.
   293  2.92  0.  0.
   294  2.93  0.  0.
   295  2.94  0.  0.
   296  2.95  0.  0.
   297  2.96  0.  0.
   298  2.97  0.  0.
   299  2.98  0.  0.
   300  2.99  0.  0.
   301  3.00  0.  0.
   302  3.01  0.  0.
   303  3.02  0.  0.
   304  3.03  0.  0.
   305  3.04  0.  0.
   306  3.05  0.  0.
   307  3.06  0.  0.
   308  3.07  0.  0.
   309  3.08  0.  0.
   310  3.09  0.  0.
   311  3.10  0.  0.
   312  3.11  0.  0.
   313  3.12  0.  0.
   314  3.13  0.  0.
   315  3.14  0.  0.
   316  3.15  0.  0.
   317  3.16  0.  0.
   318  3.17  0.  0.
   319  3.18  0.  0.
   320  3.19  0.  0.
   321  3.20  0.  0.
   322  3.21  0.  0.
   323  3.22  0.  0.
   324  3.23  0.  0.
   325  3.24  0.  0.
   326  3.25  0.  0.
   327  3.26  0.  0.
   328  3.27  0.  0.
   329  3.28  0.  0.
   330  3.29  0.  0.
   331  3.30  0.  0.
   332  3.31  0.  0.
   333  3.32  0.  0.
   334  3.33  0.  0.
   335  3.34  0.  0.
   336  3.35  0.  0.
   337  3.36  0.  0.
   338  3.37  0.  0.
   339  3.38  0.  0.
   340  3.39  0.  0.
   341  3.40  0.  0.
   342  3.41  0.  0.
   343  3.42  0.  0.
   344  3.43  0.  0.
   345  3.44  0.  0.
   346  3.45  0.  0.
   347  3.46  0.  0.
   348  3.47  0.  0.
   349  3.48  0.  0.
   350  3.49  0.  0.
   351  3.50  0.  0.
   352  3.51  0.  0.
   353  3.52  0.  0.
   354  3.53  0.  0.
   355  3.54  0.  0.
   356  3.55  0.  0.
   357  3.56  0.  0.
   358  3.57  0.  0.
   359  3.58  0.  0.
   360  3.59  0.  0.
   361  3.60  0.  0.
   362  3.61  0.  0.
   363  3.62  0.  0.
   364  3.63  0.  0.
   365  3.64  0.  0.
   366  3.65  0.  0.
   367  3.66  0.  0.
   368  3.67  0.  0.
   369  3.68  0.  0.
   370  3.69  0.  0.
   371  3.70  0.  0.
   372  3.71  0.  0.
   373  3.72  0.  0.
   374  3.73  0.  0.
   375  3.74  0.  0.
   376  3.75  0.  0.
   377  3.76  0.  0.
   378  3.77  0.  0.
   379  3.78  0.  0.
   380  3.79  0.  0.
   381  3.80  0.  0.
   382  3.81  0.  0.
   383  3.82  0.  0.
   384  3.83  0.  0.
   385  3.84  0.  0.
   386  3.85  0.  0.
   387  3.86  0.  0.
   388  3.87  0.  0.
   389  3.88  0.  0.
   390  3.89  0.  0.
   391  3.90  0.  0.
   392  3.91  0.  0.
   393  3.92  0.  0.
   394  3.93  0.  0.
   395  3.94  0.  0.
   396  3.95  0.  0.
   397  3.96  0.  0.
   398  3.97  0.  0.
   399  3.98  0.  0.
   400  3.99  0.  0.
   401  4.00  0.  0.
   402  4.01  0.  0.
   403  4.02  0.  0.
   404  4.03  0.  0.
   405  4.04  0.  0.
   406  4.05  0.  0.
   407  4.06  0.  0.
   408  4.07  0.  0.
   409  4.08  0.  0.
   410  4.09  0.  0.
   411  4.10  0.  0.
   412  4.11  0.  0.
   413  4.12  0.  0.
   414  4.13  0.  0.
   415  4.14  0.  0.
   416  4.15  0.  0.
   417  4.16  0.  0.
   418  4.17  0.  0.
   419  4.18  0.  0.
   420  4.19  0.  0.
   421  4.20  0.  0.
   422  4.21  0.  0.
   423  4.22  0.  0.
   424  4.23  0.  0.
   425  4.24  0.  0.
   426  4.25  0.  0.
   427  4.26  0.  0.
   428  4.27  0.  0.
   429  4.28  0.  0.
   430  4.29  0.  0.
   431  4.30  0.  0.
   432  4.31  0.  0.
   433  4.32  0.  0.
   434  4.33  0.  0.
   435  4.34  0.  0.
   436  4.35  0.  0.
   437  4.36  0.  0.
   438  4.37  0.  0.
   439  4.38  0.  0.
   440  4.39  0.  0.
   441  4.40  0.  0.
   442  4.41  0.  0.
   443  4.42  0.  0.
   444  4.43  0.  0.
   445  4.44  0.  0.
   446  4.45  0.  0.
   447  4.46  0.  0.
   448  4.47  0.  0.
   449  4.48  0.  0.
   450  4.49  0.  0.
   451  4.50  0.  0.
   452  4.51  0.  0.
   453  4.52  0.  0.
   454  4.53  0.  0.
   455  4.54  0.  0.
   456  4.55  0.  0.
   457  4.56  0.  0.
   458  4.57  0.  0.
   459  4.58  0.  0.
   460  4.59  0.  0.
   461  4.60  0.  0.
   462  4.61  0.  0.
   463  4.62  0.  0.
   464  4.63  0.  0.
   465  4.64  0.  0.
   466  4.65  0.  0.
   467  4.66  0.  0.
   468  4.67  0.  0.
   469  4.68  0.  0.
   470  4.69  0.  0.
   471  4.70  0.  0.
   472  4.71  0.  0.
   473  4.72  0.  0.
   474  4.73  0.  0.
   475  4.74  0.  0.
   476  4.75  0.  0.
   477  4.76  0.  0.
   478  4.77  0.  0.
   479  4.78  0.  0.
   480  4.79  0.  0.
   481  4.80  0.  0.
   482  4.81  0.  0.
   483  4.82  0.  0.
   484  4.83  0.  0.
   485  4.84  0.  0.
   486  4.85  0.  0.
   487  4.86  0.  0.
   488  4.87  0.  0.
   489  4.88  0.  0.
   490  4.89  0.  0.
   491  4.90  0.  0.
   492  4.91  0.  0.
   493  4.92  0.  0.
   494  4.93  0.  0.
   495  4.94  0.  0.
   496  4.95  0.  0.
   497  4.96  0.  0.
   498  4.97  0.  0.
   499  4.98  0.  0.
   500  4.99  0.  0.
   501  5.00  0.  0.
   502  5.01  0.  0.
   503  5.02  0.  0.
   504  5.03  0.  0.
   505  5.04  0.  0.
   506  5.05  0.  0.
   507  5.06  0.  0.
   508  5.07  0.  0.
   509  5.08  0.  0.
   510  5.09  0.  0.
   511  5.10  0.  0.
   512  5.11  0.  0.
   513  5.12  0.  0.
   514  5.13  0.  0.
   515  5.14  0.  0.
   516  5.15  0.  0.
   517  5.16  0.  0.
   518  5.17  0.  0.
   519  5.18  0.  0.
   520  5.19  0.  0.
   521  5.20  0.  0.
   522  5.21  0.  0.
   523  5.22  0.  0.
   524  5.23  0.  0.
   525  5.24  0.  0.
   526  5.25  0.  0.
   527  5.26  0.  0.
   528  5.27  0.  0.
   529  5.28  0.  0.
   530  5.29  0.  0.
   531  5.30  0.  0.
   532  5.31  0.  0.
   533  5.32  0.  0.
   534  5.33  0.  0.
   535  5.34  0.  0.
   536  5.35  0.  0.
   537  5.36  0.  0.
   538  5.37  0.  0.
   539  5.38  0.  0.
   540  5.39  0.  0.
   541  5.40  0.  0.
   542  5.41  0.  0.
   543  5.42  0.  0.
   544  5.43  0.  0.
   545  5.44  0.  0.
   546  5.45  0.  0.
   547  5.46  0.  0.
   548  5.47  0.  0.
   549  5.48  0.  0.
   550  5.49  0.  0.
   551  5.50  0.  0.
   552  5.51  0.  0.
   553  5.52  0.  0.
   554  5.53  0.  0.
   555  5.54  0.  0.
   556  5.55  0.  0.
   557  5.56  0.  0.
   558  5.57  0.  0.
   559  5.58  0.  0.
   560  5.59  0.  0.
   561  5.60  0.  0.
   562  5.61  0.  0.
   563  5.62  0.  0.
   564  5.63  0.  0.
   565  5.64  0.  0.
   566  5.65  0.  0.
   567  5.66  0.  0.
   568  5.67  0.  0.
   569  5.68  0.  0.
   570  5.69  0.  0.
   571  5.70  0.  0.
   572  5.71  0.  0.
   573  5.72  0.  0.
   574  5.73  0.  0.
   575  5.74  0.  0.
   576  5.75  0.  0.
   577  5.76  0.  0.
   578  5.77  0.  0.
   579  5.78  0.  0.
   580  5.79  0.  0.
   581  5.80  0.  0.
   582  5.81  0.  0.
   583  5.82  0.  0.
   584  5.83  0.  0.
   585  5.84  0.  0.
   586  5.85  0.  0.
   587  5.86  0.  0.
   588  5.87  0.  0.
   589  5.88  0.  0.
   590  5.89  0.  0.
   591  5.90  0.  0.
   592  5.91  0.  0.
   593  5.92  0.  0.
   594  5.93  0.  0.
   595  5.94  0.  0.
   596  5.95  0.  0.
   597  5.96  0.  0.
   598  5.97  0.  0.
   599  5.98  0.  0.
   600  5.99  0.  0.
   1                         4.8895550629391E+00  7.4411104386902E-01
     1  0.0000000000000E+00  1.5040601264449E-09 -3.6116415830234E-09
     2  1.0000000000000E-02  1.3184100045757E-03 -7.2130686788127E-04
     3  2.0000000000000E-02  5.2681309442166E-03 -2.8783666987818E-03
     4  3.0000000000000E-02  1.1832684472503E-02 -6.4506990014968E-03
     5  4.0000000000000E-02  2.0984768688150E-02 -1.1404506849261E-02
     6  5.0000000000000E-02  3.2686497984121E-02 -1.7693175073665E-02
     7  6.0000000000000E-02  4.6889732579117E-02 -2.5257952629113E-02
     8  7.0000000000000E-02  6.3536491642070E-02 -3.4028804437534E-02
     9  8.0000000000000E-02  8.2559442416188E-02 -4.3925414411435E-02
    10  9.0000000000000E-02  1.0388245641446E-01 -5.4858318161854E-02
    11  1.0000000000000E-01  1.2742122262307E-01 -6.6730141200741E-02
    12  1.1000000000000E-01  1.5308390673858E-01 -7.9436916307485E-02
    13  1.2000000000000E-01  1.8077184479834E-01 -9.2869452195378E-02
    14  1.3000000000000E-01  2.1038025915766E-01 -1.0691472472366E-01
    15  1.4000000000000E-01  2.4179898462884E-01 -1.2145726167422E-01
    16  1.5000000000000E-01  2.7491319273105E-01 -1.3638049255658E-01
    17  1.6000000000000E-01  3.0960410240136E-01 -1.5156803601090E-01
    18  1.7000000000000E-01  3.4574966617757E-01 -1.6690489912225E-01
    19  1.8000000000000E-01  3.8322522176739E-01 -1.8227856530212E-01
    20  1.9000000000000E-01  4.2190410004517E-01 -1.9757995028101E-01
    21  2.0000000000000E-01  4.6165818184053E-01 -2.1270420912555E-01
    22  2.1000000000000E-01  5.0235839737352E-01 -2.2755138096588E-01
    23  2.2000000000000E-01  5.4387516381220E-01 -2.4202686220974E-01
    24  2.3000000000000E-01  5.8607875814523E-01 -2.5604170333330E-01
    25  2.4000000000000E-01  6.2883962433304E-01 -2.6951272877629E-01
    26  2.5000000000000E-01  6.7202861548560E-01 -2.8236248392690E-01
    27  2.6000000000000E-01  7.1551717357116E-01 -2.9451901755649E-01
    28  2.7000000000000E-01  7.5917745084709E-01 -3.0591551225124E-01
    29  2.8000000000000E-01  8.0288237878130E-01 -3.1648977929023E-01
    30  2.9000000000000E-01  8.4650569166238E-01 -3.2618363794030E-01
    31  3.0000000000000E-01  8.8992191334519E-01 -3.3494220219510E-01
    32  3.1000000000000E-01  9.3300631661417E-01 -3.4271310050122E-01
    33  3.2000000000000E-01  9.7563486544400E-01 -3.4944565592490E-01
    34  3.3000000000000E-01  1.0176841509752E+00 -3.5509005546860E-01
    35  3.4000000000000E-01  1.0590313322861E+00 -3.5959653781077E-01
    36  3.5000000000000E-01  1.0995540930227E+00 -3.6291462859496E-01
    37  3.6000000000000E-01  1.1391306246444E+00 -3.6499245153052E-01
    38  3.7000000000000E-01  1.1776396464544E+00 -3.6577614199963E-01
    39  3.8000000000000E-01  1.2149604717287E+00 -3.6520938762127E-01
    40  3.9000000000000E-01  1.2509731281431E+00 -3.6323311734702E-01
    41  4.0000000000000E-01  1.2855585393555E+00 -3.5978535721383E-01
    42  4.1000000000000E-01  1.3185987730535E+00 -3.5480126692923E-01
    43  4.2000000000000E-01  1.3499773590591E+00 -3.4821336709799E-01
    44  4.3000000000000E-01  1.3795796792357E+00 -3.3995196221266E-01
    45  4.4000000000000E-01  1.4072934289975E+00 -3.2994575962677E-01
    46  4.5000000000000E-01  1.4330091482361E+00 -3.1812267971893E-01
    47  4.6000000000000E-01  1.4566208174844E+00 -3.0441084745301E-01
    48  4.7000000000000E-01  1.4780265131914E+00 -2.8873975065792E-01
    49  4.8000000000000E-01  1.4971291141186E+00 -2.7104154570640E-01
    50  4.9000000000000E-01  1.5138370491436E+00 -2.5125248697334E-01
    51  5.0000000000000E-01  1.5280650752038E+00 -2.2931445260731E-01
    52  5.1000000000000E-01  1.5397350727694E+00 -2.0517653584691E-01
    53  5.2000000000000E-01  1.5487768451494E+00 -1.7879666844284E-01
    54  5.3000000000000E-01  1.5551289071116E+00 -1.5014324077717E-01
    55  5.4000000000000E-01  1.5587392477870E+00 -1.1919668206193E-01
    56  5.5000000000000E-01  1.5595660526300E+00 -8.5950963588296E-02
    57  5.6000000000000E-01  1.5575783693348E+00 -5.0414988411651E-02
    58  5.7000000000000E-01  1.5527567030723E+00 -1.2613832099672E-02
    59  5.8000000000000E-01  1.5450935271996E+00  2.7410198769930E-02
    60  5.9000000000000E-01  1.5345936967021E+00  6.9596720831198E-02
    61  6.0000000000000E-01  1.5212747530315E+00  1.1386666775953E-01
    62  6.1000000000000E-01  1.5051671106811E+00  1.6012194634468E-01
    63  6.2000000000000E-01  1.4863141177623E+00  2.0824537260253E-01
    64  6.3000000000000E-01  1.4647719849689E+00  2.5810090038596E-01
    65  6.4000000000000E-01  1.4406095796066E+00  3.0953414923592E-01
    66  6.5000000000000E-01  1.4139080837702E+00  3.6237323222757E-01
    67  6.6000000000000E-01  1.3847605182237E+00  4.1642987843973E-01
    68  6.7000000000000E-01  1.3532711360275E+00  4.7150083853892E-01
    69  6.8000000000000E-01  1.3195546924119E+00  5.2736955595656E-01
    70  6.9000000000000E-01  1.2837355997549E+00  5.8380808038106E-01
    71  7.0000000000000E-01  1.2459469787492E+00  6.4057919491465E-01
    72  7.1000000000000E-01  1.2063296188749E+00  6.9743872338094E-01
    73  7.2000000000000E-01  1.1650308630905E+00  7.5413798002659E-01
    74  7.3000000000000E-01  1.1222034331790E+00  8.1042632033983E-01
    75  7.4000000000000E-01  1.0780042133929E+00  8.6605374899949E-01
    76  7.5000000000000E-01  1.0325930109101E+00  9.2077353913856E-01
    77  7.6000000000000E-01  9.8613131211509E-01  9.7434481621311E-01
    78  7.7000000000000E-01  9.3878105384340E-01  1.0265350598406E+00
    79  7.8000000000000E-01  8.9070342846535E-01  1.0771224780268E+00
    80  7.9000000000000E-01  8.4205774103457E-01  1.1258982102299E+00
    81  8.0000000000000E-01  7.9300033570464E-01  1.1726683186819E+00
    82  8.1000000000000E-01  7.4368360723299E-01  1.2172555312556E+00
    83  8.2000000000000E-01  6.9425511167604E-01  1.2595007038587E+00
    84  8.3000000000000E-01  6.4485678836406E-01  1.2992639757618E+00
    85  8.4000000000000E-01  5.9562430296814E-01  1.3364255973280E+00
    86  8.5000000000000E-01  5.4668651898196E-01  1.3708864161773E+00
    87  8.6000000000000E-01  4.9816510228747E-01  1.4025680147604E+00
    88  8.7000000000000E-01  4.5017426071239E-01  1.4314124994936E+00
    89  8.8000000000000E-01  4.0282061767564E-01  1.4573819488563E+00
    90  8.9000000000000E-01  3.5620321621546E-01  1.4804575350372E+00
    91  9.0000000000000E-01  3.1041364696320E-01  1.5006383406638E+00
    92  9.1000000000000E-01  2.6553629102418E-01  1.5179398987191E+00
    93  9.2000000000000E-01  2.2164866631232E-01  1.5323924897902E+00
    94  9.3000000000000E-01  1.7882186371223E-01  1.5440392361680E+00
    95  9.4000000000000E-01  1.3712105755965E-01  1.5529340368979E+00
    96  9.5000000000000E-01  9.6606073383887E-02  1.5591393915673E+00
    97  9.6000000000000E-01  5.7331994679656E-02  1.5627241633014E+00
    98  9.7000000000000E-01  1.9349789701579E-02  1.5637613330646E+00
    99  9.8000000000000E-01 -1.7293061077417E-02  1.5623257978749E+00
   100  9.9000000000000E-01 -5.2551956119292E-02  1.5584922649016E+00
   101  1.0000000000000E+00 -8.6384601339400E-02  1.5523332916431E+00
   102  1.0100000000000E+00 -1.1875049379166E-01  1.5439175194738E+00
   103  1.0200000000000E+00 -1.4961047695173E-01  1.5333081438743E+00
   104  1.0300000000000E+00 -1.7892638226895E-01  1.5205616596643E+00
   105  1.0400000000000E+00 -2.0666076954127E-01  1.5057269136604E+00
   106  1.0500000000000E+00 -2.3277677623254E-01  1.4888444904689E+00
   107  1.0600000000000E+00 -2.5723808315174E-01  1.4699464497433E+00
   108  1.0700000000000E+00 -2.8000900100618E-01  1.4490564253453E+00
   109  1.0800000000000E+00 -3.0105467927573E-01  1.4261900885710E+00
   110  1.0900000000000E+00 -3.2034143571602E-01  1.4013559691649E+00
   111  1.1000000000000E+00 -3.3783720163229E-01  1.3745566193727E+00
   112  1.1100000000000E+00 -3.5351207495858E-01  1.3457900979891E+00
   113  1.1200000000000E+00 -3.6733897018800E-01  1.3150517434168E+00
   114  1.1300000000000E+00 -3.7929435139760E-01  1.2823361973224E+00
   115  1.1400000000000E+00 -3.8935903206613E-01  1.2476396337547E+00
   116  1.1500000000000E+00 -3.9751902314331E-01  1.2109621426968E+00
   117  1.1600000000000E+00 -4.0376640896201E-01  1.1723102121315E+00
   118  1.1700000000000E+00 -4.0810022912455E-01  1.1316992488992E+00
   119  1.1800000000000E+00 -4.1052734348921E-01  1.0891560760388E+00
   120  1.1900000000000E+00 -4.1106325685637E-01  1.0447213429893E+00
   121  1.2000000000000E+00 -4.0973287993067E-01  9.9845178504612E-01