Mo    ONCVPSP-4.0.1  r_core=   2.31851   2.58210   2.02049
     42.0000     14.0000      210704    zatom,zion,pspd
     8      11   2     4   600     0    pspcod,pspxc,lmax,lloc,mmax,r2well
  5.99000000  3.00000000  0.00000000    rchrg fchrg qchrg
     2     2     2     0     0    nproj
     1     1           extension_switch
   0                         9.2651985855568E+00  1.3350550320521E+00
     1  0.0000000000000E+00  2.2101431795818E-11 -5.0907611459650E-11
     2  1.0000000000000E-02  5.1400245855004E-02 -2.0555922766302E-02
     3  2.0000000000000E-02  1.0274211857734E-01 -4.1063392705014E-02
     4  3.0000000000000E-02  1.5396725113741E-01 -6.1473892915654E-02
     5  4.0000000000000E-02  2.0501728935276E-01 -8.1738779849684E-02
     6  5.0000000000000E-02  2.5583389990844E-01 -1.0180922371784E-01
     7  6.0000000000000E-02  3.0635878027781E-01 -1.2163615333885E-01
     8  7.0000000000000E-02  3.5653367115124E-01 -1.4117020685005E-01
     9  8.0000000000000E-02  4.0630037195798E-01 -1.6036168964936E-01
    10  9.0000000000000E-02  4.5560076003928E-01 -1.7916054087514E-01
    11  1.0000000000000E-01  5.0437681399824E-01 -1.9751630965623E-01
    12  1.1000000000000E-01  5.5257064171511E-01 -2.1537814227850E-01
    13  1.2000000000000E-01  6.0012451347457E-01 -2.3269478131893E-01
    14  1.3000000000000E-01  6.4698090060604E-01 -2.4941457769192E-01
    15  1.4000000000000E-01  6.9308251998798E-01 -2.6548551643888E-01
    16  1.5000000000000E-01  7.3837238471375E-01 -2.8085525696884E-01
    17  1.6000000000000E-01  7.8279386116024E-01 -2.9547118832854E-01
    18  1.7000000000000E-01  8.2629073264095E-01 -3.0928049994447E-01
    19  1.8000000000000E-01  8.6880726976368E-01 -3.2223026813800E-01
    20  1.9000000000000E-01  9.1028830754945E-01 -3.3426755856976E-01
    21  2.0000000000000E-01  9.5067932930432E-01 -3.4533954462076E-01
    22  2.1000000000000E-01  9.8992655716979E-01 -3.5539364156775E-01
    23  2.2000000000000E-01  1.0279770492113E+00 -3.6437765625876E-01
    24  2.3000000000000E-01  1.0647788028375E+00 -3.7223995184428E-01
    25  2.4000000000000E-01  1.1002808642780E+00 -3.7892962696980E-01
    26  2.5000000000000E-01  1.1344334437812E+00 -3.8439670868852E-01
    27  2.6000000000000E-01  1.1671880361314E+00 -3.8859235821006E-01
    28  2.7000000000000E-01  1.1984975460221E+00 -3.9146908846219E-01
    29  2.8000000000000E-01  1.2283164177646E+00 -3.9298099231017E-01
    30  2.9000000000000E-01  1.2566007687522E+00 -3.9308398015239E-01
    31  3.0000000000000E-01  1.2833085260508E+00 -3.9173602549321E-01
    32  3.1000000000000E-01  1.3083995654344E+00 -3.8889741698441E-01
    33  3.2000000000000E-01  1.3318358521390E+00 -3.8453101532757E-01
    34  3.3000000000000E-01  1.3535815825712E+00 -3.7860251334029E-01
    35  3.4000000000000E-01  1.3736033261650E+00 -3.7108069741151E-01
    36  3.5000000000000E-01  1.3918701665570E+00 -3.6193770850521E-01
    37  3.6000000000000E-01  1.4083538412166E+00 -3.5114930081831E-01
    38  3.7000000000000E-01  1.4230288786554E+00 -3.3869509615791E-01
    39  3.8000000000000E-01  1.4358727323180E+00 -3.2455883207625E-01
    40  3.9000000000000E-01  1.4468659102544E+00 -3.0872860178810E-01
    41  4.0000000000000E-01  1.4559920996664E+00 -2.9119708389587E-01
    42  4.1000000000000E-01  1.4632382854272E+00 -2.7196175996265E-01
    43  4.2000000000000E-01  1.4685948616820E+00 -2.5102511800215E-01
    44  4.3000000000000E-01  1.4720557356526E+00 -2.2839483999699E-01
    45  4.4000000000000E-01  1.4736184227915E+00 -2.0408397161470E-01
    46  4.5000000000000E-01  1.4732841324591E+00 -1.7811107236008E-01
    47  4.6000000000000E-01  1.4710578433300E+00 -1.5050034448776E-01
    48  4.7000000000000E-01  1.4669483677761E+00 -1.2128173909484E-01
    49  4.8000000000000E-01  1.4609684045164E+00 -9.0491037923290E-02
    50  4.9000000000000E-01  1.4531345788755E+00 -5.8169909522913E-02
    51  5.0000000000000E-01  1.4434674700488E+00 -2.4365938557792E-02
    52  5.1000000000000E-01  1.4319916248286E+00  1.0867372817867E-02
    53  5.2000000000000E-01  1.4187355573149E+00  4.7470632436507E-02
    54  5.3000000000000E-01  1.4037317341983E+00  8.5378615207582E-02
    55  5.4000000000000E-01  1.3870165452775E+00  1.2452035041396E-01
    56  5.5000000000000E-01  1.3686302589471E+00  1.6481923963144E-01
    57  5.6000000000000E-01  1.3486169624708E+00  2.0619320550750E-01
    58  5.7000000000000E-01  1.3270244869336E+00  2.4855487145004E-01
    59  5.8000000000000E-01  1.3039043168507E+00  2.9181177208801E-01
    60  5.9000000000000E-01  1.2793114844917E+00  3.3586659417459E-01
    61  6.0000000000000E-01  1.2533044490652E+00  3.8061744741179E-01
    62  6.1000000000000E-01  1.2259449609923E+00  4.2595816448288E-01
    63  6.2000000000000E-01  1.1972979115805E+00  4.7177862938909E-01
    64  6.3000000000000E-01  1.1674311684976E+00  5.1796513299796E-01
    65  6.4000000000000E-01  1.1364153975211E+00  5.6440075452707E-01
    66  6.5000000000000E-01  1.1043238711263E+00  6.1096576750683E-01
    67  6.6000000000000E-01  1.0712322645499E+00  6.5753806859215E-01
    68  6.7000000000000E-01  1.0372184400444E+00  7.0399362742675E-01
    69  6.8000000000000E-01  1.0023622201107E+00  7.5020695560434E-01
    70  6.9000000000000E-01  9.6674515056717E-01  7.9605159262235E-01
    71  7.0000000000000E-01  9.3045025437630E-01  8.4140060658344E-01
    72  7.1000000000000E-01  8.9356177721373E-01  8.8612710727200E-01
    73  7.2000000000000E-01  8.5616492581986E-01  9.3010476911539E-01
    74  7.3000000000000E-01  8.1834560022577E-01  9.7320836143510E-01
    75  7.4000000000000E-01  7.8019012099105E-01  1.0153142833017E+00
    76  7.5000000000000E-01  7.4178495263234E-01  1.0563011002290E+00
    77  7.6000000000000E-01  7.0321642445501E-01  1.0960500798794E+00
    78  7.7000000000000E-01  6.6457045003001E-01  1.1344457239020E+00
    79  7.8000000000000E-01  6.2593224657928E-01  1.1713762929933E+00
    80  7.9000000000000E-01  5.8738605554981E-01  1.2067343222453E+00
    81  8.0000000000000E-01  5.4901486566563E-01  1.2404171238483E+00
    82  8.1000000000000E-01  5.1090013975005E-01  1.2723272742199E+00
    83  8.2000000000000E-01  4.7312154660712E-01  1.3023730826617E+00
    84  8.3000000000000E-01  4.3575669924118E-01  1.3304690386844E+00
    85  8.4000000000000E-01  3.9888090067704E-01  1.3565362351974E+00
    86  8.5000000000000E-01  3.6256689862075E-01  1.3805027648281E+00
    87  8.6000000000000E-01  3.2688465017182E-01  1.4023040867213E+00
    88  8.7000000000000E-01  2.9190109776300E-01  1.4218833612645E+00
    89  8.8000000000000E-01  2.5767995746319E-01  1.4391917502956E+00
    90  8.9000000000000E-01  2.2428152073259E-01  1.4541886804708E+00
    91  9.0000000000000E-01  1.9176247066796E-01  1.4668420676044E+00
    92  9.1000000000000E-01  1.6017571371933E-01  1.4771284999361E+00
    93  9.2000000000000E-01  1.2957022779847E-01  1.4850333784340E+00
    94  9.3000000000000E-01  9.9990927634011E-02  1.4905510124056E+00
    95  9.4000000000000E-01  7.1478548159086E-02  1.4936846688587E+00
    96  9.5000000000000E-01  4.4069546644481E-02  1.4944465742309E+00
    97  9.6000000000000E-01  1.7796024214514E-02  1.4928578672899E+00
    98  9.7000000000000E-01 -7.3143326954436E-03  1.4889485021951E+00
    99  9.8000000000000E-01 -3.1238290461647E-02  1.4827571009020E+00
   100  9.9000000000000E-01 -5.3957085578936E-02  1.4743307542845E+00
   101  1.0000000000000E+00 -7.5456420839819E-02  1.4637247715471E+00
   102  1.0100000000000E+00 -9.5726440157850E-02  1.4510023776952E+00
   103  1.0200000000000E+00 -1.1476168189241E-01  1.4362343590234E+00
   104  1.0300000000000E+00 -1.3256101061666E-01  1.4194986567829E+00
   105  1.0400000000000E+00 -1.4912752735457E-01  1.4008799093703E+00
   106  1.0500000000000E+00 -1.6446845839619E-01  1.3804689435760E+00
   107  1.0600000000000E+00 -1.7859502288186E-01  1.3583622156070E+00
   108  1.0700000000000E+00 -1.9152227942620E-01  1.3346612027768E+00
   109  1.0800000000000E+00 -2.0326895213001E-01  1.3094717469269E+00
   110  1.0900000000000E+00 -2.1385723640339E-01  1.2829033508038E+00
   111  1.1000000000000E+00 -2.2331258509527E-01  1.2550684287719E+00
   112  1.1100000000000E+00 -2.3166347549300E-01  1.2260815133865E+00
   113  1.1200000000000E+00 -2.3894115782081E-01  1.1960584194872E+00
   114  1.1300000000000E+00 -2.4517938592651E-01  1.1651153675984E+00
   115  1.1400000000000E+00 -2.5041413090300E-01  1.1333680685356E+00
   116  1.1500000000000E+00 -2.5468327844288E-01  1.1009307712224E+00
   117  1.1600000000000E+00 -2.5802631077240E-01  1.0679152758139E+00
   118  1.1700000000000E+00 -2.6048397405358E-01  1.0344299143018E+00
   119  1.1800000000000E+00 -2.6209793218099E-01  1.0005785008465E+00
   120  1.1900000000000E+00 -2.6291040793248E-01  9.6645925413487E-01
   121  1.2000000000000E+00 -2.6296381245046E-01  9.3216369401935E-01
   122  1.2100000000000E+00 -2.6230036472791E-01  8.9777552076887E-01
   123  1.2200000000000E+00 -2.6096169954667E-01  8.6336945603208E-01
   124  1.2300000000000E+00 -2.5898869166949E-01  8.2901201213569E-01
   125  1.2400000000000E+00 -2.5642180044562E-01  7.9476629230282E-01
   126  1.2500000000000E+00 -2.5330116526975E-01  7.6069373929555E-01
   127  1.2600000000000E+00 -2.4966650432462E-01  7.2685395076693E-01
   128  1.2700000000000E+00 -2.4555701963273E-01  6.9330452390252E-01
   129  1.2800000000000E+00 -2.4101130639569E-01  6.6010090845436E-01
   130  1.2900000000000E+00 -2.3606726747918E-01  6.2729627419683E-01
   131  1.3000000000000E+00 -2.3076203318808E-01  5.9494139253205E-01
   132  1.3100000000000E+00 -2.2513188645615E-01  5.6308453206229E-01
   133  1.3200000000000E+00 -2.1921219352087E-01  5.3177136776520E-01
   134  1.3300000000000E+00 -2.1303734014791E-01  5.0104490356004E-01
   135  1.3400000000000E+00 -2.0664067342585E-01  4.7094540790815E-01
   136  1.3500000000000E+00 -2.0005444912671E-01  4.4151036207955E-01
   137  1.3600000000000E+00 -1.9330978462141E-01  4.1277442080804E-01
   138  1.3700000000000E+00 -1.8643661729285E-01  3.8476938487120E-01
   139  1.3800000000000E+00 -1.7946366839470E-01  3.5752418527942E-01
   140  1.3900000000000E+00 -1.7241841223626E-01  3.3106487843647E-01
   141  1.4000000000000E+00 -1.6532705074448E-01  3.0541465274059E-01
   142  1.4100000000000E+00 -1.5821449295861E-01  2.8059384420983E-01
   143  1.4200000000000E+00 -1.5110433971443E-01  2.5661996297675E-01
   144  1.4300000000000E+00 -1.4401887319016E-01  2.3350772907125E-01
   145  1.4400000000000E+00 -1.3697905108144E-01  2.1126911653178E-01
   146  1.4500000000000E+00 -1.3000450540408E-01  1.8991340632573E-01
   147  1.4600000000000E+00 -1.2311354565135E-01  1.6944724698589E-01
   148  1.4700000000000E+00 -1.1632316615813E-01  1.4987472265676E-01
   149  1.4800000000000E+00 -1.0964905746375E-01  1.3119742793400E-01
   150  1.4900000000000E+00 -1.0310562148550E-01  1.1341454902707E-01
   151  1.5000000000000E+00 -9.6705990292520E-02  9.6522950679959E-02
   152  1.5100000000000E+00 -9.0462048275674E-02  8.0517268344805E-02
   153  1.5200000000000E+00 -8.4384457486189E-02  6.5390005001981E-02
   154  1.5300000000000E+00 -7.8482685968300E-02  5.1131632311639E-02
   155  1.5400000000000E+00 -7.2765038684947E-02  3.7730694643289E-02
   156  1.5500000000000E+00 -6.7238691422459E-02  2.5173918535757E-02
   157  1.5600000000000E+00 -6.1909726198712E-02  1.3446320716967E-02
   158  1.5700000000000E+00 -5.6783169463395E-02  2.5313218207545E-03
   159  1.5800000000000E+00 -5.1863031949026E-02 -7.5891393580316E-03
   160  1.5900000000000E+00 -4.7152349963264E-02 -1.6934491513607E-02
   161  1.6000000000000E+00 -4.2653228311267E-02 -2.5525414807568E-02
   162  1.6100000000000E+00 -3.8366884335012E-02 -3.3383725150486E-02
   163  1.6200000000000E+00 -3.4293692969589E-02 -4.0532258680012E-02
   164  1.6300000000000E+00 -3.0433232585201E-02 -4.6994756994256E-02
   165  1.6400000000000E+00 -2.6784331411454E-02 -5.2795753565063E-02
   166  1.6500000000000E+00 -2.3345114361734E-02 -5.7960461663110E-02
   167  1.6600000000000E+00 -2.0113050056287E-02 -6.2514664227996E-02
   168  1.6700000000000E+00 -1.7084997869992E-02 -6.6484605996512E-02
   169  1.6800000000000E+00 -1.4257254819838E-02 -6.9896888266095E-02
   170  1.6900000000000E+00 -1.1625602137482E-02 -7.2778366541259E-02
   171  1.7000000000000E+00 -9.1853513556724E-03 -7.5156051402692E-02
   172  1.7100000000000E+00 -6.9313897579208E-03 -7.7057012857241E-02
   173  1.7200000000000E+00 -4.8582250563641E-03 -7.8508288371865E-02
   174  1.7300000000000E+00 -2.9600291550625E-03 -7.9536794846931E-02
   175  1.7400000000000E+00 -1.2306808725655E-03 -8.0169244725002E-02
   176  1.7500000000000E+00  3.3619248326355E-04 -8.0432066362773E-02
   177  1.7600000000000E+00  1.7471748076048E-03 -8.0351328868671E-02
   178  1.7700000000000E+00  3.0090222432727E-03 -7.9952671472313E-02
   179  1.7800000000000E+00  4.1286256790518E-03 -7.9261237585392E-02
   180  1.7900000000000E+00  5.1129747699244E-03 -7.8301613583773E-02
   181  1.8000000000000E+00  5.9691235492374E-03 -7.7097772369501E-02
   182  1.8100000000000E+00  6.7041577025977E-03 -7.5673021789423E-02
   183  1.8200000000000E+00  7.3251635426232E-03 -7.4049957871882E-02
   184  1.8300000000000E+00  7.8391987282780E-03 -7.2250422883440E-02
   185  1.8400000000000E+00  8.2532647677887E-03 -7.0295468206242E-02
   186  1.8500000000000E+00  8.5742813214049E-03 -6.8205321956987E-02
   187  1.8600000000000E+00  8.8090623201559E-03 -6.5999361287468E-02
   188  1.8700000000000E+00  8.9642939099858E-03 -6.3696089296482E-02
   189  1.8800000000000E+00  9.0465142135074E-03 -6.1313116427251E-02
   190  1.8900000000000E+00  9.0620949105577E-03 -5.8867146281456E-02
   191  1.9000000000000E+00  9.0172246066242E-03 -5.6373965660726E-02
   192  1.9100000000000E+00  8.9178939731545E-03 -5.3848438728020E-02
   193  1.9200000000000E+00  8.7698826297629E-03 -5.1304505138052E-02
   194  1.9300000000000E+00  8.5787477266233E-03 -4.8755181951979E-02
   195  1.9400000000000E+00  8.3498141819383E-03 -4.6212569152992E-02
   196  1.9500000000000E+00  8.0881665298158E-03 -4.3687858595842E-02
   197  1.9600000000000E+00  7.7986423239130E-03 -4.1191346195205E-02
   198  1.9700000000000E+00  7.4858270304464E-03 -3.8732447121733E-02
   199  1.9800000000000E+00  7.1540503550291E-03 -3.6319713832649E-02
   200  1.9900000000000E+00  6.8073839280047E-03 -3.3960856692587E-02
   201  2.0000000000000E+00  6.4496402840508E-03 -3.1662766997650E-02
   202  2.0100000000000E+00  6.0843730565428E-03 -2.9431542161854E-02
   203  2.0200000000000E+00  5.7148783079068E-03 -2.7272512837500E-02
   204  2.0300000000000E+00  5.3441969204044E-03 -2.5190271762735E-02
   205  2.0400000000000E+00  4.9751179673842E-03 -2.3188704118524E-02
   206  2.0500000000000E+00  4.6101829743606E-03 -2.1271019139626E-02
   207  2.0600000000000E+00  4.2516909939026E-03 -1.9439782790649E-02
   208  2.0700000000000E+00  3.9017044062289E-03 -1.7696951272861E-02
   209  2.0800000000000E+00  3.5620553612306E-03 -1.6043905147205E-02
   210  2.0900000000000E+00  3.2343527810326E-03 -1.4481483876071E-02
   211  2.1000000000000E+00  2.9199898375513E-03 -1.3010020569154E-02
   212  2.1100000000000E+00  2.6201517930882E-03 -1.1629376613836E-02
   213  2.1200000000000E+00  2.3358242483786E-03 -1.0338976504628E-02
   214  2.1300000000000E+00  2.0678015349334E-03 -9.1378419394121E-03
   215  2.1400000000000E+00  1.8166949630455E-03 -8.0246241458922E-03
   216  2.1500000000000E+00  1.5829420702863E-03 -6.9976392102614E-03
   217  2.1600000000000E+00  1.3668151179666E-03 -6.0548995378463E-03
   218  2.1700000000000E+00  1.1684285648954E-03 -5.1941398107888E-03
   219  2.1800000000000E+00  9.8774781717542E-04 -4.4128479800638E-03
   220  2.1900000000000E+00  8.2460444717066E-04 -3.7083243889303E-03
   221  2.2000000000000E+00  6.7868699947783E-04 -3.0776345764466E-03
   222  2.2100000000000E+00  5.4936711645640E-04 -2.5168023789751E-03
   223  2.2200000000000E+00  4.3572651307630E-04 -2.0209127503052E-03
   224  2.2300000000000E+00  3.3726540986147E-04 -1.5873198343808E-03
   225  2.2400000000000E+00  2.5343176195490E-04 -1.2135261792934E-03
   226  2.2500000000000E+00  1.8350447896586E-04 -8.9664714461609E-04
   227  2.2600000000000E+00  1.2665263015264E-04 -6.3366327892306E-04
   228  2.2700000000000E+00  8.1931538643056E-05 -4.2139262371890E-04
   229  2.2800000000000E+00  4.8294188711357E-05 -2.5654426816227E-04
   230  2.2900000000000E+00  2.4576011955447E-05 -1.3558392502168E-04
   231  2.3000000000000E+00  9.4808948686416E-06 -5.4640947354734E-05
   232  2.3100000000000E+00  2.0125471522144E-06 -1.2274509350563E-05
   233  2.3200000000000E+00 -1.1444498252604E-07  7.2564937729998E-07
   234  2.3300000000000E+00 -7.7219240051880E-08  5.0987725369868E-07
   235  2.34  0. -0.
   236  2.35 -0.  0.
   237  2.36 -0.  0.
   238  2.37 -0.  0.
   239  2.38  0.  0.
   240  2.39  0.  0.
   241  2.40  0.  0.
   242  2.41  0.  0.
   243  2.42  0.  0.
   244  2.43  0.  0.
   245  2.44  0.  0.
   246  2.45  0.  0.
   247  2.46  0.  0.
   248  2.47  0.  0.
   249  2.48  0.  0.
   250  2.49  0.  0.
   251  2.50  0.  0.
   252  2.51  0.  0.
   253  2.52  0.  0.
   254  2.53  0.  0.
   255  2.54  0.  0.
   256  2.55  0.  0.
   257  2.56  0.  0.
   258  2.57  0.  0.
   259  2.58  0.  0.
   260  2.59  0.  0.
   261  2.60  0.  0.
   262  2.61  0.  0.
   263  2.62  0.  0.
   264  2.63  0.  0.
   265  2.64  0.  0.
   266  2.65  0.  0.
   267  2.66  0.  0.
   268  2.67  0.  0.
   269  2.68  0.  0.
   270  2.69  0.  0.
   271  2.70  0.  0.
   272  2.71  0.  0.
   273  2.72  0.  0.
   274  2.73  0.  0.
   275  2.74  0.  0.
   276  2.75  0.  0.
   277  2.76  0.  0.
   278  2.77  0.  0.
   279  2.78  0.  0.
   280  2.79  0.  0.
   281  2.80  0.  0.
   282  2.81  0.  0.
   283  2.82  0.  0.
   284  2.83  0.  0.
   285  2.84  0.  0.
   286  2.85  0.  0.
   287  2.86  0.  0.
   288  2.87  0.  0.
   289  2.88  0.  0.
   290  2.89  0.  0.
   291  2.90  0.  0.
   292  2.91  0.  0.
   293  2.92  0.  0.
   294  2.93  0.  0.
   295  2.94  0.  0.
   296  2.95  0.  0.
   297  2.96  0.  0.
   298  2.97  0.  0.
   299  2.98  0.  0.
   300  2.99  0.  0.
   301  3.00  0.  0.
   302  3.01  0.  0.
   303  3.02  0.  0.
   304  3.03  0.  0.
   305  3.04  0.  0.
   306  3.05  0.  0.
   307  3.06  0.  0.
   308  3.07  0.  0.
   309  3.08  0.  0.
   310  3.09  0.  0.
   311  3.10  0.  0.
   312  3.11  0.  0.
   313  3.12  0.  0.
   314  3.13  0.  0.
   315  3.14  0.  0.
   316  3.15  0.  0.
   317  3.16  0.  0.
   318  3.17  0.  0.
   319  3.18  0.  0.
   320  3.19  0.  0.
   321  3.20  0.  0.
   322  3.21  0.  0.
   323  3.22  0.  0.
   324  3.23  0.  0.
   325  3.24  0.  0.
   326  3.25  0.  0.
   327  3.26  0.  0.
   328  3.27  0.  0.
   329  3.28  0.  0.
   330  3.29  0.  0.
   331  3.30  0.  0.
   332  3.31  0.  0.
   333  3.32  0.  0.
   334  3.33  0.  0.
   335  3.34  0.  0.
   336  3.35  0.  0.
   337  3.36  0.  0.
   338  3.37  0.  0.
   339  3.38  0.  0.
   340  3.39  0.  0.
   341  3.40  0.  0.
   342  3.41  0.  0.
   343  3.42  0.  0.
   344  3.43  0.  0.
   345  3.44  0.  0.
   346  3.45  0.  0.
   347  3.46  0.  0.
   348  3.47  0.  0.
   349  3.48  0.  0.
   350  3.49  0.  0.
   351  3.50  0.  0.
   352  3.51  0.  0.
   353  3.52  0.  0.
   354  3.53  0.  0.
   355  3.54  0.  0.
   356  3.55  0.  0.
   357  3.56  0.  0.
   358  3.57  0.  0.
   359  3.58  0.  0.
   360  3.59  0.  0.
   361  3.60  0.  0.
   362  3.61  0.  0.
   363  3.62  0.  0.
   364  3.63  0.  0.
   365  3.64  0.  0.
   366  3.65  0.  0.
   367  3.66  0.  0.
   368  3.67  0.  0.
   369  3.68  0.  0.
   370  3.69  0.  0.
   371  3.70  0.  0.
   372  3.71  0.  0.
   373  3.72  0.  0.
   374  3.73  0.  0.
   375  3.74  0.  0.
   376  3.75  0.  0.
   377  3.76  0.  0.
   378  3.77  0.  0.
   379  3.78  0.  0.
   380  3.79  0.  0.
   381  3.80  0.  0.
   382  3.81  0.  0.
   383  3.82  0.  0.
   384  3.83  0.  0.
   385  3.84  0.  0.
   386  3.85  0.  0.
   387  3.86  0.  0.
   388  3.87  0.  0.
   389  3.88  0.  0.
   390  3.89  0.  0.
   391  3.90  0.  0.
   392  3.91  0.  0.
   393  3.92  0.  0.
   394  3.93  0.  0.
   395  3.94  0.  0.
   396  3.95  0.  0.
   397  3.96  0.  0.
   398  3.97  0.  0.
   399  3.98  0.  0.
   400  3.99  0.  0.
   401  4.00  0.  0.
   402  4.01  0.  0.
   403  4.02  0.  0.
   404  4.03  0.  0.
   405  4.04  0.  0.
   406  4.05  0.  0.
   407  4.06  0.  0.
   408  4.07  0.  0.
   409  4.08  0.  0.
   410  4.09  0.  0.
   411  4.10  0.  0.
   412  4.11  0.  0.
   413  4.12  0.  0.
   414  4.13  0.  0.
   415  4.14  0.  0.
   416  4.15  0.  0.
   417  4.16  0.  0.
   418  4.17  0.  0.
   419  4.18  0.  0.
   420  4.19  0.  0.
   421  4.20  0.  0.
   422  4.21  0.  0.
   423  4.22  0.  0.
   424  4.23  0.  0.
   425  4.24  0.  0.
   426  4.25  0.  0.
   427  4.26  0.  0.
   428  4.27  0.  0.
   429  4.28  0.  0.
   430  4.29  0.  0.
   431  4.30  0.  0.
   432  4.31  0.  0.
   433  4.32  0.  0.
   434  4.33  0.  0.
   435  4.34  0.  0.
   436  4.35  0.  0.
   437  4.36  0.  0.
   438  4.37  0.  0.
   439  4.38  0.  0.
   440  4.39  0.  0.
   441  4.40  0.  0.
   442  4.41  0.  0.
   443  4.42  0.  0.
   444  4.43  0.  0.
   445  4.44  0.  0.
   446  4.45  0.  0.
   447  4.46  0.  0.
   448  4.47  0.  0.
   449  4.48  0.  0.
   450  4.49  0.  0.
   451  4.50  0.  0.
   452  4.51  0.  0.
   453  4.52  0.  0.
   454  4.53  0.  0.
   455  4.54  0.  0.
   456  4.55  0.  0.
   457  4.56  0.  0.
   458  4.57  0.  0.
   459  4.58  0.  0.
   460  4.59  0.  0.
   461  4.60  0.  0.
   462  4.61  0.  0.
   463  4.62  0.  0.
   464  4.63  0.  0.
   465  4.64  0.  0.
   466  4.65  0.  0.
   467  4.66  0.  0.
   468  4.67  0.  0.
   469  4.68  0.  0.
   470  4.69  0.  0.
   471  4.70  0.  0.
   472  4.71  0.  0.
   473  4.72  0.  0.
   474  4.73  0.  0.
   475  4.74  0.  0.
   476  4.75  0.  0.
   477  4.76  0.  0.
   478  4.77  0.  0.
   479  4.78  0.  0.
   480  4.79  0.  0.
   481  4.80  0.  0.
   482  4.81  0.  0.
   483  4.82  0.  0.
   484  4.83  0.  0.
   485  4.84  0.  0.
   486  4.85  0.  0.
   487  4.86  0.  0.
   488  4.87  0.  0.
   489  4.88  0.  0.
   490  4.89  0.  0.
   491  4.90  0.  0.
   492  4.91  0.  0.
   493  4.92  0.  0.
   494  4.93  0.  0.
   495  4.94  0.  0.
   496  4.95  0.  0.
   497  4.96  0.  0.
   498  4.97  0.  0.
   499  4.98  0.  0.
   500  4.99  0.  0.
   501  5.00  0.  0.
   502  5.01  0.  0.
   503  5.02  0.  0.
   504  5.03  0.  0.
   505  5.04  0.  0.
   506  5.05  0.  0.
   507  5.06  0.  0.
   508  5.07  0.  0.
   509  5.08  0.  0.
   510  5.09  0.  0.
   511  5.10  0.  0.
   512  5.11  0.  0.
   513  5.12  0.  0.
   514  5.13  0.  0.
   515  5.14  0.  0.
   516  5.15  0.  0.
   517  5.16  0.  0.
   518  5.17  0.  0.
   519  5.18  0.  0.
   520  5.19  0.  0.
   521  5.20  0.  0.
   522  5.21  0.  0.
   523  5.22  0.  0.
   524  5.23  0.  0.
   525  5.24  0.  0.
   526  5.25  0.  0.
   527  5.26  0.  0.
   528  5.27  0.  0.
   529  5.28  0.  0.
   530  5.29  0.  0.
   531  5.30  0.  0.
   532  5.31  0.  0.
   533  5.32  0.  0.
   534  5.33  0.  0.
   535  5.34  0.  0.
   536  5.35  0.  0.
   537  5.36  0.  0.
   538  5.37  0.  0.
   539  5.38  0.  0.
   540  5.39  0.  0.
   541  5.40  0.  0.
   542  5.41  0.  0.
   543  5.42  0.  0.
   544  5.43  0.  0.
   545  5.44  0.  0.
   546  5.45  0.  0.
   547  5.46  0.  0.
   548  5.47  0.  0.
   549  5.48  0.  0.
   550  5.49  0.  0.
   551  5.50  0.  0.
   552  5.51  0.  0.
   553  5.52  0.  0.
   554  5.53  0.  0.
   555  5.54  0.  0.
   556  5.55  0.  0.
   557  5.56  0.  0.
   558  5.57  0.  0.
   559  5.58  0.  0.
   560  5.59  0.  0.
   561  5.60  0.  0.
   562  5.61  0.  0.
   563  5.62  0.  0.
   564  5.63  0.  0.
   565  5.64  0.  0.
   566  5.65  0.  0.
   567  5.66  0.  0.
   568  5.67  0.  0.
   569  5.68  0.  0.
   570  5.69  0.  0.
   571  5.70  0.  0.
   572  5.71  0.  0.
   573  5.72  0.  0.
   574  5.73  0.  0.
   575  5.74  0.  0.
   576  5.75  0.  0.
   577  5.76  0.  0.
   578  5.77  0.  0.
   579  5.78  0.  0.
   580  5.79  0.  0.
   581  5.80  0.  0.
   582  5.81  0.  0.
   583  5.82  0.  0.
   584  5.83  0.  0.
   585  5.84  0.  0.
   586  5.85  0.  0.
   587  5.86  0.  0.
   588  5.87  0.  0.
   589  5.88  0.  0.
   590  5.89  0.  0.
   591  5.90  0.  0.
   592  5.91  0.  0.
   593  5.92  0.  0.
   594  5.93  0.  0.
   595  5.94  0.  0.
   596  5.95  0.  0.
   597  5.96  0.  0.
   598  5.97  0.  0.
   599  5.98  0.  0.
   600  5.99  0.  0.
   1                         4.4662511051439E+00 -1.4125156286228E+00
     1  0.0000000000000E+00  2.8502013249554E-11 -2.2421156598007E-10
     2  1.0000000000000E-02  8.7198187310438E-04 -1.2387448999084E-03
     3  2.0000000000000E-02  3.4857602151583E-03 -4.9489119679035E-03
     4  3.0000000000000E-02  7.8348387617456E-03 -1.1112324742901E-02
     5  4.0000000000000E-02  1.3908408948836E-02 -1.9698777120330E-02
     6  5.0000000000000E-02  2.1691377676997E-02 -3.0666164940506E-02
     7  6.0000000000000E-02  3.1164406079817E-02 -4.3960669399504E-02
     8  7.0000000000000E-02  4.2303959195366E-02 -5.9516991474383E-02
     9  8.0000000000000E-02  5.5082366410972E-02 -7.7258636330423E-02
    10  9.0000000000000E-02  6.9467892523411E-02 -9.7098246458865E-02
    11  1.0000000000000E-01  8.5424819228692E-02 -1.1893798208051E-01
    12  1.1000000000000E-01  1.0291353682825E-01 -1.4266994714434E-01
    13  1.2000000000000E-01  1.2189064591139E-01 -1.6817665905224E-01
    14  1.3000000000000E-01  1.4230906874739E-01 -1.9533156005181E-01
    15  1.4000000000000E-01  1.6411817009504E-01 -2.2399956805982E-01
    16  1.5000000000000E-01  1.8726388711221E-01 -2.5403766451009E-01
    17  1.6000000000000E-01  2.1168886802377E-01 -2.8529551666232E-01
    18  1.7000000000000E-01  2.3733261918265E-01 -3.1761613166301E-01
    19  1.8000000000000E-01  2.6413166013627E-01 -3.5083653951716E-01
    20  1.9000000000000E-01  2.9201968628890E-01 -3.8478850200976E-01
    21  2.0000000000000E-01  3.2092773872967E-01 -4.1929924451077E-01
    22  2.1000000000000E-01  3.5078438077659E-01 -4.5419220750554E-01
    23  2.2000000000000E-01  3.8151588076830E-01 -4.8928781461549E-01
    24  2.3000000000000E-01  4.1304640061806E-01 -5.2440425381147E-01
    25  2.4000000000000E-01  4.4529818962827E-01 -5.5935826847466E-01
    26  2.5000000000000E-01  4.7819178304934E-01 -5.9396595492707E-01
    27  2.6000000000000E-01  5.1164620485301E-01 -6.2804356303605E-01
    28  2.7000000000000E-01  5.4557917417833E-01 -6.6140829649422E-01
    29  2.8000000000000E-01  5.7990731489805E-01 -6.9387910938836E-01
    30  2.9000000000000E-01  6.1454636774384E-01 -7.2527749569684E-01
    31  3.0000000000000E-01  6.4941140442126E-01 -7.5542826839609E-01
    32  3.1000000000000E-01  6.8441704313956E-01 -7.8416032491087E-01
    33  3.2000000000000E-01  7.1947766497681E-01 -8.1130739571146E-01
    34  3.3000000000000E-01  7.5450763049797E-01 -8.3670877294157E-01
    35  3.4000000000000E-01  7.8942149604269E-01 -8.6021001605447E-01
    36  3.5000000000000E-01  8.2413422909974E-01 -8.8166363154042E-01
    37  3.6000000000000E-01  8.5856142218754E-01 -9.0092972394504E-01
    38  3.7000000000000E-01  8.9261950466387E-01 -9.1787661550590E-01
    39  3.8000000000000E-01  9.2622595189342E-01 -9.3238143187193E-01
    40  3.9000000000000E-01  9.5929949120933E-01 -9.4433065151684E-01
    41  4.0000000000000E-01  9.9176030411347E-01 -9.5362061661326E-01
    42  4.1000000000000E-01  1.0235302241710E+00 -9.6015800329676E-01
    43  4.2000000000000E-01  1.0545329300668E+00 -9.6386024941908E-01
    44  4.3000000000000E-01  1.0846941333055E+00 -9.6465593806590E-01
    45  4.4000000000000E-01  1.1139417600520E+00 -9.6248513529598E-01
    46  4.5000000000000E-01  1.1422061266254E+00 -9.5729968074424E-01
    47  4.6000000000000E-01  1.1694201081807E+00 -9.4906342992161E-01
    48  4.7000000000000E-01  1.1955193001281E+00 -9.3775244723701E-01
    49  4.8000000000000E-01  1.2204421718641E+00 -9.2335514896196E-01
    50  4.9000000000000E-01  1.2441302124111E+00 -9.0587239555535E-01
    51  5.0000000000000E-01  1.2665280675831E+00 -8.8531753296260E-01
    52  5.1000000000000E-01  1.2875836683244E+00 -8.6171638270182E-01
    53  5.2000000000000E-01  1.3072483498890E+00 -8.3510718074585E-01
    54  5.3000000000000E-01  1.3254769615605E+00 -8.0554046540504E-01
    55  5.4000000000000E-01  1.3422279666362E+00 -7.7307891460968E-01
    56  5.5000000000000E-01  1.3574635324297E+00 -7.3779713318199E-01
    57  5.6000000000000E-01  1.3711496100746E+00 -6.9978139087658E-01
    58  5.7000000000000E-01  1.3832560039433E+00 -6.5912931215279E-01
    59  5.8000000000000E-01  1.3937564305228E+00 -6.1594951882367E-01
    60  5.9000000000000E-01  1.4026285666220E+00 -5.7036122690292E-01
    61  6.0000000000000E-01  1.4098540868158E+00 -5.2249379914276E-01
    62  6.1000000000000E-01  1.4154186900608E+00 -4.7248625492236E-01
    63  6.2000000000000E-01  1.4193121154506E+00 -4.2048673930765E-01
    64  6.3000000000000E-01  1.4215281471073E+00 -3.6665195325826E-01
    65  6.4000000000000E-01  1.4220646082391E+00 -3.1114654710666E-01
    66  6.5000000000000E-01  1.4209233444208E+00 -2.5414247957701E-01
    67  6.6000000000000E-01  1.4181101961886E+00 -1.9581834474748E-01
    68  6.7000000000000E-01  1.4136349610641E+00 -1.3635866948882E-01
    69  6.8000000000000E-01  1.4075113451569E+00 -7.5953184034281E-02
    70  6.9000000000000E-01  1.3997569045178E+00 -1.4796068450971E-02
    71  7.0000000000000E-01  1.3903929764456E+00  4.6914822109634E-02
    72  7.1000000000000E-01  1.3794446009740E+00  1.0897875040403E-01
    73  7.2000000000000E-01  1.3669404327906E+00  1.7119290526130E-01
    74  7.3000000000000E-01  1.3529126438635E+00  2.3335322176447E-01
    75  7.4000000000000E-01  1.3373968170747E+00  2.9525521021618E-01
    76  7.5000000000000E-01  1.3204318311775E+00  3.5669479058687E-01
    77  7.6000000000000E-01  1.3020597374190E+00  4.1746912908254E-01
    78  7.7000000000000E-01  1.2823256281823E+00  4.7737747341672E-01