Tc    ONCVPSP-4.0.1  r_core=   2.44773   2.75882   2.82563
     43.0000     15.0000      210704    zatom,zion,pspd
     8      11   2     4   600     0    pspcod,pspxc,lmax,lloc,mmax,r2well
  5.99000000  5.00000000  0.00000000    rchrg fchrg qchrg
     2     2     2     0     0    nproj
     1     1           extension_switch
   0                         1.6980077689590E+00 -2.6961755281331E-01
     1  0.0000000000000E+00  2.2304380564719E-13  2.7852442574527E-12
     2  1.0000000000000E-02  4.7147543710567E-02  1.1710064632124E-02
     3  2.0000000000000E-02  9.4229769858511E-02  2.3425946496142E-02
     4  3.0000000000000E-02  1.4118145960205E-01  3.5153429820819E-02
     5  4.0000000000000E-02  1.8793759141235E-01  4.6898232973547E-02
     6  5.0000000000000E-02  2.3443343940823E-01  5.8665975891161E-02
     7  6.0000000000000E-02  2.8060467130441E-01  7.0462147942573E-02
     8  7.0000000000000E-02  3.2638744584432E-01  8.2292076363852E-02
     9  8.0000000000000E-02  3.7171850958806E-01  9.4160895403606E-02
    10  9.0000000000000E-02  4.1653529292584E-01  1.0607351631300E-01
    11  1.0000000000000E-01  4.6077600518690E-01  1.1803459831063E-01
    12  1.1000000000000E-01  5.0437972871358E-01  1.3004852064778E-01
    13  1.2000000000000E-01  5.4728651176974E-01  1.4211935589401E-01
    14  1.3000000000000E-01  5.8943746015242E-01  1.5425084455737E-01
    15  1.4000000000000E-01  6.3077482737526E-01  1.6644637114684E-01
    16  1.5000000000000E-01  6.7124210329202E-01  1.7870894177752E-01
    17  1.6000000000000E-01  7.1078410102798E-01  1.9104116341198E-01
    18  1.7000000000000E-01  7.4934704208716E-01  2.0344522482278E-01
    19  1.8000000000000E-01  7.8687863950314E-01  2.1592287935331E-01
    20  1.9000000000000E-01  8.2332817890111E-01  2.2847542954511E-01
    21  2.0000000000000E-01  8.5864659733946E-01  2.4110371369119E-01
    22  2.1000000000000E-01  8.9278655979912E-01  2.5380809436534E-01
    23  2.2000000000000E-01  9.2570253318966E-01  2.6658844896834E-01
    24  2.3000000000000E-01  9.5735085774225E-01  2.7944416232221E-01
    25  2.4000000000000E-01  9.8768981565996E-01  2.9237412133399E-01
    26  2.5000000000000E-01  1.0166796968980E+00  3.0537671174098E-01
    27  2.6000000000000E-01  1.0442828619476E+00  3.1844981693945E-01
    28  2.7000000000000E-01  1.0704638014991E+00  3.3159081888932E-01
    29  2.8000000000000E-01  1.0951891928628E+00  3.4479660107760E-01
    30  2.9000000000000E-01  1.1184279530273E+00  3.5806355351421E-01
    31  3.0000000000000E-01  1.1401512882410E+00  3.7138757972415E-01
    32  3.1000000000000E-01  1.1603327400007E+00  3.8476410569147E-01
    33  3.2000000000000E-01  1.1789482273412E+00  3.9818809070154E-01
    34  3.3000000000000E-01  1.1959760853191E+00  4.1165404001975E-01
    35  3.4000000000000E-01  1.2113970995913E+00  4.2515601933702E-01
    36  3.5000000000000E-01  1.2251945369922E+00  4.3868767090451E-01
    37  3.6000000000000E-01  1.2373541720208E+00  4.5224223127342E-01
    38  3.7000000000000E-01  1.2478643091532E+00  4.6581255054853E-01
    39  3.8000000000000E-01  1.2567158009032E+00  4.7939111305838E-01
    40  3.9000000000000E-01  1.2639020615598E+00  4.9297005933940E-01
    41  4.0000000000000E-01  1.2694190765404E+00  5.0654120932618E-01
    42  4.1000000000000E-01  1.2732654073007E+00  5.2009608663575E-01
    43  4.2000000000000E-01  1.2754421917564E+00  5.3362594383001E-01
    44  4.3000000000000E-01  1.2759531401770E+00  5.4712178853718E-01
    45  4.4000000000000E-01  1.2748045265201E+00  5.6057441031071E-01
    46  4.5000000000000E-01  1.2720051751879E+00  5.7397440810213E-01
    47  4.6000000000000E-01  1.2675664431914E+00  5.8731221822317E-01
    48  4.7000000000000E-01  1.2615021977239E+00  6.0057814267191E-01
    49  4.8000000000000E-01  1.2538287891502E+00  6.1376237769761E-01
    50  4.9000000000000E-01  1.2445650194326E+00  6.2685504247986E-01
    51  5.0000000000000E-01  1.2337321060218E+00  6.3984620779880E-01
    52  5.1000000000000E-01  1.2213536412553E+00  6.5272592457509E-01
    53  5.2000000000000E-01  1.2074555473140E+00  6.6548425216109E-01
    54  5.3000000000000E-01  1.1920660268001E+00  6.7811128626749E-01
    55  5.4000000000000E-01  1.1752155090112E+00  6.9059718641360E-01
    56  5.5000000000000E-01  1.1569365919958E+00  7.0293220279336E-01
    57  5.6000000000000E-01  1.1372639804862E+00  7.1510670245418E-01
    58  5.7000000000000E-01  1.1162344198178E+00  7.2711119469061E-01
    59  5.8000000000000E-01  1.0938866259541E+00  7.3893635556030E-01
    60  5.9000000000000E-01  1.0702612117455E+00  7.5057305143613E-01
    61  6.0000000000000E-01  1.0454006095650E+00  7.6201236151394E-01
    62  6.1000000000000E-01  1.0193489904705E+00  7.7324559920280E-01
    63  6.2000000000000E-01  9.9215218005571E-01  7.8426433233081E-01
    64  6.3000000000000E-01  9.6385757116144E-01  7.9506040210698E-01
    65  6.4000000000000E-01  9.3451403362691E-01  8.0562594078695E-01
    66  6.5000000000000E-01  9.0417182127249E-01  8.1595338799767E-01
    67  6.6000000000000E-01  8.7288247631150E-01  8.2603550568362E-01
    68  6.7000000000000E-01  8.4069873139796E-01  8.3586539164479E-01
    69  6.8000000000000E-01  8.0767440952448E-01  8.4543649164419E-01
    70  6.9000000000000E-01  7.7386432199139E-01  8.5474261007014E-01
    71  7.0000000000000E-01  7.3932416467463E-01  8.6377791914598E-01
    72  7.1000000000000E-01  7.0411041282537E-01  8.7253696668719E-01
    73  7.2000000000000E-01  6.6828021463951E-01  8.8101468241307E-01
    74  7.3000000000000E-01  6.3189128383944E-01  8.8920638282701E-01
    75  7.4000000000000E-01  5.9500179151368E-01  8.9710777468602E-01
    76  7.5000000000000E-01  5.5767025746303E-01  9.0471495708667E-01
    77  7.6000000000000E-01  5.1995544130384E-01  9.1202442220063E-01
    78  7.7000000000000E-01  4.8191623357966E-01  9.1903305469884E-01
    79  7.8000000000000E-01  4.4361154713361E-01  9.2573812990844E-01
    80  7.9000000000000E-01  4.0510020899253E-01  9.3213731075205E-01
    81  8.0000000000000E-01  3.6644085301333E-01  9.3822864352294E-01
    82  8.1000000000000E-01  3.2769181353922E-01  9.4401055255438E-01
    83  8.2000000000000E-01  2.8891102031110E-01  9.4948183384460E-01
    84  8.3000000000000E-01  2.5015589487506E-01  9.5464164770234E-01
    85  8.4000000000000E-01  2.1148324872275E-01  9.5948951048052E-01
    86  8.5000000000000E-01  1.7294918339591E-01  9.6402528546795E-01
    87  8.6000000000000E-01  1.3460899278005E-01  9.6824917301051E-01
    88  8.7000000000000E-01  9.6517067805716E-02  9.7216169993490E-01
    89  8.8000000000000E-01  5.8726803767779E-02  9.7576370834836E-01
    90  8.9000000000000E-01  2.1290510465349E-02  9.7905634388865E-01
    91  9.0000000000000E-01 -1.5740674644390E-02  9.8204104349780E-01
    92  9.1000000000000E-01 -5.2316870094439E-02  9.8471952279326E-01
    93  9.2000000000000E-01 -8.8389530684560E-02  9.8709376310828E-01
    94  9.3000000000000E-01 -1.2391152422301E-01  9.8916599827269E-01
    95  9.4000000000000E-01 -1.5883720458143E-01  9.9093870120264E-01
    96  9.5000000000000E-01 -1.9312248092244E-01  9.9241457036644E-01
    97  9.6000000000000E-01 -2.2672488297151E-01  9.9359651619022E-01
    98  9.7000000000000E-01 -2.5960362221677E-01  9.9448764746515E-01
    99  9.8000000000000E-01 -2.9171964893345E-01  9.9509125781396E-01
   100  9.9000000000000E-01 -3.2303570494185E-01  9.9541081227180E-01
   101  1.0000000000000E+00 -3.5351637202140E-01  9.9544993403225E-01
   102  1.0100000000000E+00 -3.8312811591580E-01  9.9521239140587E-01
   103  1.0200000000000E+00 -4.1183932587813E-01  9.9470208503440E-01
   104  1.0300000000000E+00 -4.3962034971733E-01  9.9392303539992E-01
   105  1.0400000000000E+00 -4.6644352432116E-01  9.9287937066358E-01
   106  1.0500000000000E+00 -4.9228320164338E-01  9.9157531486494E-01
   107  1.0600000000000E+00 -5.1711577015614E-01  9.9001517650793E-01
   108  1.0700000000000E+00 -5.4091967178089E-01  9.8820333755593E-01
   109  1.0800000000000E+00 -5.6367541432400E-01  9.8614424285365E-01
   110  1.0900000000000E+00 -5.8536557945491E-01  9.8384238998976E-01
   111  1.1000000000000E+00 -6.0597482627693E-01  9.8130231961013E-01
   112  1.1100000000000E+00 -6.2548989055170E-01  9.7852860618759E-01
   113  1.1200000000000E+00 -6.4389957964971E-01  9.7552584925057E-01
   114  1.1300000000000E+00 -6.6119476330945E-01  9.7229866506943E-01
   115  1.1400000000000E+00 -6.7736836029781E-01  9.6885167879608E-01
   116  1.1500000000000E+00 -6.9241532107385E-01  9.6518951704952E-01
   117  1.1600000000000E+00 -7.0633260656676E-01  9.6131680093700E-01
   118  1.1700000000000E+00 -7.1911916318725E-01  9.5723813949839E-01
   119  1.1800000000000E+00 -7.3077589419893E-01  9.5295812355887E-01
   120  1.1900000000000E+00 -7.4130562758366E-01  9.4848131997342E-01
   121  1.2000000000000E+00 -7.5071308054072E-01  9.4381226624496E-01
   122  1.2100000000000E+00 -7.5900482076561E-01  9.3895546549689E-01
   123  1.2200000000000E+00 -7.6618922465914E-01  9.3391538177973E-01
   124  1.2300000000000E+00 -7.7227643262182E-01  9.2869643569131E-01
   125  1.2400000000000E+00 -7.7727830159220E-01  9.2330300028950E-01
   126  1.2500000000000E+00 -7.8120835499065E-01  9.1773939727664E-01
   127  1.2600000000000E+00 -7.8408173023252E-01  9.1200989343538E-01
   128  1.2700000000000E+00 -7.8591512397620E-01  9.0611869729618E-01
   129  1.2800000000000E+00 -7.8672673527253E-01  9.0006995601786E-01
   130  1.2900000000000E+00 -7.8653620678239E-01  8.9386775246390E-01
   131  1.3000000000000E+00 -7.8536456422925E-01  8.8751610245851E-01
   132  1.3100000000000E+00 -7.8323415425244E-01  8.8101895220865E-01
   133  1.3200000000000E+00 -7.8016858082555E-01  8.7438017587974E-01
   134  1.3300000000000E+00 -7.7619264040278E-01  8.6760357331536E-01
   135  1.3400000000000E+00 -7.7133225595330E-01  8.6069286789320E-01
   136  1.3500000000000E+00 -7.6561441004114E-01  8.5365170451252E-01
   137  1.3600000000000E+00 -7.5906707710478E-01  8.4648364771024E-01
   138  1.3700000000000E+00 -7.5171915508696E-01  8.3919217990614E-01
   139  1.3800000000000E+00 -7.4360039656136E-01  8.3178069977993E-01
   140  1.3900000000000E+00 -7.3474133949835E-01  8.2425252078590E-01
   141  1.4000000000000E+00 -7.2517323780746E-01  8.1661086981327E-01
   142  1.4100000000000E+00 -7.1492799178977E-01  8.0885888600360E-01
   143  1.4200000000000E+00 -7.0403807862773E-01  8.0099961973848E-01
   144  1.4300000000000E+00 -6.9253648303549E-01  7.9303603181396E-01
   145  1.4400000000000E+00 -6.8045662818716E-01  7.8497099282008E-01
   146  1.4500000000000E+00 -6.6783230703505E-01  7.7680728274613E-01
   147  1.4600000000000E+00 -6.5469761412475E-01  7.6854759083466E-01
   148  1.4700000000000E+00 -6.4108687800836E-01  7.6019451570873E-01
   149  1.4800000000000E+00 -6.2703459435177E-01  7.5175056579858E-01
   150  1.4900000000000E+00 -6.1257535982671E-01  7.4321816009550E-01
   151  1.5000000000000E+00 -5.9774380687286E-01  7.3459962926158E-01
   152  1.5100000000000E+00 -5.8257453941021E-01  7.2589721712485E-01
   153  1.5200000000000E+00 -5.6710206957709E-01  7.1711308258999E-01
   154  1.5300000000000E+00 -5.5136075556391E-01  7.0824930199501E-01
   155  1.5400000000000E+00 -5.3538474060859E-01  6.9930787194404E-01
   156  1.5500000000000E+00 -5.1920789321477E-01  6.9029071264635E-01
   157  1.5600000000000E+00 -5.0286374864964E-01  6.8119967179054E-01
   158  1.5700000000000E+00 -4.8638545177438E-01  6.7203652898235E-01
   159  1.5800000000000E+00 -4.6980570125623E-01  6.6280300077269E-01
   160  1.5900000000000E+00 -4.5315669520745E-01  6.5350074630127E-01
   161  1.6000000000000E+00 -4.3647007829349E-01  6.4413137357903E-01
   162  1.6100000000000E+00 -4.1977689034903E-01  6.3469644643028E-01
   163  1.6200000000000E+00 -4.0310751653805E-01  6.2519749211324E-01
   164  1.6300000000000E+00 -3.8649163909132E-01  6.1563600963462E-01
   165  1.6400000000000E+00 -3.6995819065197E-01  6.0601347877097E-01
   166  1.6500000000000E+00 -3.5353530925806E-01  5.9633136980636E-01
   167  1.6600000000000E+00 -3.3725029498845E-01  5.8659115399243E-01
   168  1.6700000000000E+00 -3.2112956829695E-01  5.7679431473334E-01
   169  1.6800000000000E+00 -3.0519863005746E-01  5.6694235949437E-01
   170  1.6900000000000E+00 -2.8948202334182E-01  5.5703683242906E-01
   171  1.7000000000000E+00 -2.7400329695014E-01  5.4707932771586E-01
   172  1.7100000000000E+00 -2.5878497071246E-01  5.3707150359124E-01
   173  1.7200000000000E+00 -2.4384850257909E-01  5.2701509706232E-01
   174  1.7300000000000E+00 -2.2921425751599E-01  5.1691193927769E-01
   175  1.7400000000000E+00 -2.1490147822022E-01  5.0676397153171E-01
   176  1.7500000000000E+00 -2.0092825766957E-01  4.9657326187301E-01
   177  1.7600000000000E+00 -1.8731151351932E-01  4.8634202228468E-01
   178  1.7700000000000E+00 -1.7406696435775E-01  4.7607262639948E-01
   179  1.7800000000000E+00 -1.6120910783119E-01  4.6576762771033E-01
   180  1.7900000000000E+00 -1.4875120064773E-01  4.5542977823261E-01
   181  1.8000000000000E+00 -1.3670524046772E-01  4.4506204757200E-01
   182  1.8100000000000E+00 -1.2508194968749E-01  4.3466764234856E-01
   183  1.8200000000000E+00 -1.1389076112126E-01  4.2425002592523E-01
   184  1.8300000000000E+00 -1.0313980558445E-01  4.1381293838659E-01
   185  1.8400000000000E+00 -9.2835901379720E-02  4.0336041671180E-01
   186  1.8500000000000E+00 -8.2984545685070E-02  3.9289681508390E-01
   187  1.8600000000000E+00 -7.3589907840998E-02  3.8242682527638E-01
   188  1.8700000000000E+00 -6.4654824531491E-02  3.7195549705703E-01
   189  1.8800000000000E+00 -5.6180796850856E-02  3.6148825854840E-01
   190  1.8900000000000E+00 -4.8167989245702E-02  3.5103093648400E-01
   191  1.9000000000000E+00 -4.0615230318445E-02  3.4058977629975E-01
   192  1.9100000000000E+00 -3.3520015475442E-02  3.3017146200037E-01
   193  1.9200000000000E+00 -2.6878511399627E-02  3.1978313574171E-01
   194  1.9300000000000E+00 -2.0685562323893E-02  3.0943241707111E-01
   195  1.9400000000000E+00 -1.4934698026815E-02  2.9912742185136E-01
   196  1.9500000000000E+00 -9.6181438757711E-03  2.8887678024397E-01
   197  1.9600000000000E+00 -4.7268314213427E-03  2.7868965601703E-01
   198  1.9700000000000E+00 -2.5041716490641E-04  2.6857575501709E-01
   199  1.9800000000000E+00  3.8227209316609E-03  2.5854537100705E-01
   200  1.9900000000000E+00  7.5052204143011E-03  2.4860900840560E-01
   201  2.0000000000000E+00  1.0810365695433E-02  2.3877686317805E-01
   202  2.0100000000000E+00  1.3751888360302E-02  2.2905859791417E-01
   203  2.0200000000000E+00  1.6343949192785E-02  2.1946341373092E-01
   204  2.0300000000000E+00  1.8601085242266E-02  2.1000006300647E-01
   205  2.0400000000000E+00  2.0538164044097E-02  2.0067687263774E-01
   206  2.0500000000000E+00  2.2170337716233E-02  1.9150176552238E-01
   207  2.0600000000000E+00  2.3512997074912E-02  1.8248228048287E-01
   208  2.0700000000000E+00  2.4581725918762E-02  1.7362559081401E-01
   209  2.0800000000000E+00  2.5392255521480E-02  1.6493852145698E-01
   210  2.0900000000000E+00  2.5960419371045E-02  1.5642756480087E-01
   211  2.1000000000000E+00  2.6302108207853E-02  1.4809889513428E-01
   212  2.1100000000000E+00  2.6433225425032E-02  1.3995838178570E-01
   213  2.1200000000000E+00  2.6369642874330E-02  1.3201160096246E-01
   214  2.1300000000000E+00  2.6127157135901E-02  1.2426384632060E-01
   215  2.1400000000000E+00  2.5721446330330E-02  1.1672013832715E-01
   216  2.1500000000000E+00  2.5168027518700E-02  1.0938523242958E-01
   217  2.1600000000000E+00  2.4482214778158E-02  1.0226362610748E-01
   218  2.1700000000000E+00  2.3679078017793E-02  9.5359564849713E-02
   219  2.1800000000000E+00  2.2773402604688E-02  8.8677047107917E-02
   220  2.1900000000000E+00  2.1779649884059E-02  8.2219828298225E-02
   221  2.2000000000000E+00  2.0711918674606E-02  7.5991423918989E-02
   222  2.2100000000000E+00  1.9583907815617E-02  6.9995111847662E-02
   223  2.2200000000000E+00  1.8408879846281E-02  6.4233933886318E-02
   224  2.2300000000000E+00  1.7199625899562E-02  5.8710696629261E-02
   225  2.2400000000000E+00  1.5968431905033E-02  5.3427971743327E-02
   226  2.2500000000000E+00  1.4727046169574E-02  4.8388095719320E-02
   227  2.2600000000000E+00  1.3486648419726E-02  4.3593169174504E-02
   228  2.2700000000000E+00  1.2257820396200E-02  3.9045055796914E-02
   229  2.2800000000000E+00  1.1050518208783E-02  3.4745381736849E-02
   230  2.2900000000000E+00  9.8740457225272E-03  3.0695531262292E-02
   231  2.3000000000000E+00  8.7370293574239E-03  2.6896640848024E-02
   232  2.3100000000000E+00  7.6474030947339E-03  2.3349632203476E-02
   233  2.3200000000000E+00  6.6123731805113E-03  2.0055148697445E-02
   234  2.3300000000000E+00  5.6383364861102E-03  1.7013202250753E-02
   235  2.3400000000000E+00  4.7307384954364E-03  1.4222452035648E-02
   236  2.3500000000000E+00  3.8945357745553E-03  1.1682720854395E-02
   237  2.3600000000000E+00  3.1340867138701E-03  9.3945584518310E-03
   238  2.3700000000000E+00  2.4528707125862E-03  7.3578887295764E-03
   239  2.3800000000000E+00  1.8535533734392E-03  5.5723513257037E-03
   240  2.3900000000000E+00  1.3379720644761E-03  4.0372478319381E-03
   241  2.4000000000000E+00  9.0713693350946E-04  2.7515549483542E-03
   242  2.4100000000000E+00  5.6139618144256E-04  1.7144606235961E-03
   243  2.4200000000000E+00  2.9933945041259E-04  9.2180840415453E-04
   244  2.4300000000000E+00  1.2002929124146E-04  3.7330353676796E-04
   245  2.4400000000000E+00  2.6160746350916E-05  8.2412120690010E-05
   246  2.4500000000000E+00 -2.6730556441866E-06 -8.4588047366906E-06
   247  2.4600000000000E+00 -1.3674967044403E-06 -4.3646702653857E-06
   248  2.47  0.  0.
   249  2.48 -0. -0.
   250  2.49 -0. -0.
   251  2.50  0. -0.
   252  2.51  0.  0.
   253  2.52  0.  0.
   254  2.53  0.  0.
   255  2.54  0.  0.
   256  2.55  0.  0.
   257  2.56  0.  0.
   258  2.57  0.  0.
   259  2.58  0.  0.
   260  2.59  0.  0.
   261  2.60  0.  0.
   262  2.61  0.  0.
   263  2.62  0.  0.
   264  2.63  0.  0.
   265  2.64  0.  0.
   266  2.65  0.  0.
   267  2.66  0.  0.
   268  2.67  0.  0.
   269  2.68  0.  0.
   270  2.69  0.  0.
   271  2.70  0.  0.
   272  2.71  0.  0.
   273  2.72  0.  0.
   274  2.73  0.  0.
   275  2.74  0.  0.
   276  2.75  0.  0.
   277  2.76  0.  0.
   278  2.77  0.  0.
   279  2.78  0.  0.
   280  2.79  0.  0.
   281  2.80  0.  0.
   282  2.81  0.  0.
   283  2.82  0.  0.
   284  2.83  0.  0.
   285  2.84  0.  0.
   286  2.85  0.  0.
   287  2.86  0.  0.
   288  2.87  0.  0.
   289  2.88  0.  0.
   290  2.89  0.  0.
   291  2.90  0.  0.
   292  2.91  0.  0.
   293  2.92  0.  0.
   294  2.93  0.  0.
   295  2.94  0.  0.
   296  2.95  0.  0.
   297  2.96  0.  0.
   298  2.97  0.  0.
   299  2.98  0.  0.
   300  2.99  0.  0.
   301  3.00  0.  0.
   302  3.01  0.  0.
   303  3.02  0.  0.
   304  3.03  0.  0.
   305  3.04  0.  0.
   306  3.05  0.  0.
   307  3.06  0.  0.
   308  3.07  0.  0.
   309  3.08  0.  0.
   310  3.09  0.  0.
   311  3.10  0.  0.
   312  3.11  0.  0.
   313  3.12  0.  0.
   314  3.13  0.  0.
   315  3.14  0.  0.
   316  3.15  0.  0.
   317  3.16  0.  0.
   318  3.17  0.  0.
   319  3.18  0.  0.
   320  3.19  0.  0.
   321  3.20  0.  0.
   322  3.21  0.  0.
   323  3.22  0.  0.
   324  3.23  0.  0.
   325  3.24  0.  0.
   326  3.25  0.  0.
   327  3.26  0.  0.
   328  3.27  0.  0.
   329  3.28  0.  0.
   330  3.29  0.  0.
   331  3.30  0.  0.
   332  3.31  0.  0.
   333  3.32  0.  0.
   334  3.33  0.  0.
   335  3.34  0.  0.
   336  3.35  0.  0.
   337  3.36  0.  0.
   338  3.37  0.  0.
   339  3.38  0.  0.
   340  3.39  0.  0.
   341  3.40  0.  0.
   342  3.41  0.  0.
   343  3.42  0.  0.
   344  3.43  0.  0.
   345  3.44  0.  0.
   346  3.45  0.  0.
   347  3.46  0.  0.
   348  3.47  0.  0.
   349  3.48  0.  0.
   350  3.49  0.  0.
   351  3.50  0.  0.
   352  3.51  0.  0.
   353  3.52  0.  0.
   354  3.53  0.  0.
   355  3.54  0.  0.
   356  3.55  0.  0.
   357  3.56  0.  0.
   358  3.57  0.  0.
   359  3.58  0.  0.
   360  3.59  0.  0.
   361  3.60  0.  0.
   362  3.61  0.  0.
   363  3.62  0.  0.
   364  3.63  0.  0.
   365  3.64  0.  0.
   366  3.65  0.  0.
   367  3.66  0.  0.
   368  3.67  0.  0.
   369  3.68  0.  0.
   370  3.69  0.  0.
   371  3.70  0.  0.
   372  3.71  0.  0.
   373  3.72  0.  0.
   374  3.73  0.  0.
   375  3.74  0.  0.
   376  3.75  0.  0.
   377  3.76  0.  0.
   378  3.77  0.  0.
   379  3.78  0.  0.
   380  3.79  0.  0.
   381  3.80  0.  0.
   382  3.81  0.  0.
   383  3.82  0.  0.
   384  3.83  0.  0.
   385  3.84  0.  0.
   386  3.85  0.  0.
   387  3.86  0.  0.
   388  3.87  0.  0.
   389  3.88  0.  0.
   390  3.89  0.  0.
   391  3.90  0.  0.
   392  3.91  0.  0.
   393  3.92  0.  0.
   394  3.93  0.  0.
   395  3.94  0.  0.
   396  3.95  0.  0.
   397  3.96  0.  0.
   398  3.97  0.  0.
   399  3.98  0.  0.
   400  3.99  0.  0.
   401  4.00  0.  0.
   402  4.01  0.  0.
   403  4.02  0.  0.
   404  4.03  0.  0.
   405  4.04  0.  0.
   406  4.05  0.  0.
   407  4.06  0.  0.
   408  4.07  0.  0.
   409  4.08  0.  0.
   410  4.09  0.  0.
   411  4.10  0.  0.
   412  4.11  0.  0.
   413  4.12  0.  0.
   414  4.13  0.  0.
   415  4.14  0.  0.
   416  4.15  0.  0.
   417  4.16  0.  0.
   418  4.17  0.  0.
   419  4.18  0.  0.
   420  4.19  0.  0.
   421  4.20  0.  0.
   422  4.21  0.  0.
   423  4.22  0.  0.
   424  4.23  0.  0.
   425  4.24  0.  0.
   426  4.25  0.  0.
   427  4.26  0.  0.
   428  4.27  0.  0.
   429  4.28  0.  0.
   430  4.29  0.  0.
   431  4.30  0.  0.
   432  4.31  0.  0.
   433  4.32  0.  0.
   434  4.33  0.  0.
   435  4.34  0.  0.
   436  4.35  0.  0.
   437  4.36  0.  0.
   438  4.37  0.  0.
   439  4.38  0.  0.
   440  4.39  0.  0.
   441  4.40  0.  0.
   442  4.41  0.  0.
   443  4.42  0.  0.
   444  4.43  0.  0.
   445  4.44  0.  0.
   446  4.45  0.  0.
   447  4.46  0.  0.
   448  4.47  0.  0.
   449  4.48  0.  0.
   450  4.49  0.  0.
   451  4.50  0.  0.
   452  4.51  0.  0.
   453  4.52  0.  0.
   454  4.53  0.  0.
   455  4.54  0.  0.
   456  4.55  0.  0.
   457  4.56  0.  0.
   458  4.57  0.  0.
   459  4.58  0.  0.
   460  4.59  0.  0.
   461  4.60  0.  0.
   462  4.61  0.  0.
   463  4.62  0.  0.
   464  4.63  0.  0.
   465  4.64  0.  0.
   466  4.65  0.  0.
   467  4.66  0.  0.
   468  4.67  0.  0.
   469  4.68  0.  0.
   470  4.69  0.  0.
   471  4.70  0.  0.
   472  4.71  0.  0.
   473  4.72  0.  0.
   474  4.73  0.  0.
   475  4.74  0.  0.
   476  4.75  0.  0.
   477  4.76  0.  0.
   478  4.77  0.  0.
   479  4.78  0.  0.
   480  4.79  0.  0.
   481  4.80  0.  0.
   482  4.81  0.  0.
   483  4.82  0.  0.
   484  4.83  0.  0.
   485  4.84  0.  0.
   486  4.85  0.  0.
   487  4.86  0.  0.
   488  4.87  0.  0.
   489  4.88  0.  0.
   490  4.89  0.  0.
   491  4.90  0.  0.
   492  4.91  0.  0.
   493  4.92  0.  0.
   494  4.93  0.  0.
   495  4.94  0.  0.
   496  4.95  0.  0.
   497  4.96  0.  0.
   498  4.97  0.  0.
   499  4.98  0.  0.
   500  4.99  0.  0.
   501  5.00  0.  0.
   502  5.01  0.  0.
   503  5.02  0.  0.
   504  5.03  0.  0.
   505  5.04  0.  0.
   506  5.05  0.  0.
   507  5.06  0.  0.
   508  5.07  0.  0.
   509  5.08  0.  0.
   510  5.09  0.  0.
   511  5.10  0.  0.
   512  5.11  0.  0.
   513  5.12  0.  0.
   514  5.13  0.  0.
   515  5.14  0.  0.
   516  5.15  0.  0.
   517  5.16  0.  0.
   518  5.17  0.  0.
   519  5.18  0.  0.
   520  5.19  0.  0.
   521  5.20  0.  0.
   522  5.21  0.  0.
   523  5.22  0.  0.
   524  5.23  0.  0.
   525  5.24  0.  0.
   526  5.25  0.  0.
   527  5.26  0.  0.
   528  5.27  0.  0.
   529  5.28  0.  0.
   530  5.29  0.  0.
   531  5.30  0.  0.
   532  5.31  0.  0.
   533  5.32  0.  0.
   534  5.33  0.  0.
   535  5.34  0.  0.
   536  5.35  0.  0.
   537  5.36  0.  0.
   538  5.37  0.  0.
   539  5.38  0.  0.
   540  5.39  0.  0.
   541  5.40  0.  0.
   542  5.41  0.  0.
   543  5.42  0.  0.
   544  5.43  0.  0.
   545  5.44  0.  0.
   546  5.45  0.  0.
   547  5.46  0.  0.
   548  5.47  0.  0.
   549  5.48  0.  0.
   550  5.49  0.  0.
   551  5.50  0.  0.
   552  5.51  0.  0.
   553  5.52  0.  0.
   554  5.53  0.  0.
   555  5.54  0.  0.
   556  5.55  0.  0.
   557  5.56  0.  0.
   558  5.57  0.  0.
   559  5.58  0.  0.
   560  5.59  0.  0.
   561  5.60  0.  0.
   562  5.61  0.  0.
   563  5.62  0.  0.
   564  5.63  0.  0.
   565  5.64  0.  0.
   566  5.65  0.  0.
   567  5.66  0.  0.
   568  5.67  0.  0.
   569  5.68  0.  0.
   570  5.69  0.  0.
   571  5.70  0.  0.
   572  5.71  0.  0.
   573  5.72  0.  0.
   574  5.73  0.  0.
   575  5.74  0.  0.
   576  5.75  0.  0.
   577  5.76  0.  0.
   578  5.77  0.  0.
   579  5.78  0.  0.
   580  5.79  0.  0.
   581  5.80  0.  0.
   582  5.81  0.  0.
   583  5.82  0.  0.
   584  5.83  0.  0.
   585  5.84  0.  0.
   586  5.85  0.  0.
   587  5.86  0.  0.
   588  5.87  0.  0.
   589  5.88  0.  0.
   590  5.89  0.  0.
   591  5.90  0.  0.
   592  5.91  0.  0.
   593  5.92  0.  0.
   594  5.93  0.  0.
   595  5.94  0.  0.
   596  5.95  0.  0.
   597  5.96  0.  0.
   598  5.97  0.  0.
   599  5.98  0.  0.
   600  5.99  0.  0.
   1                        -9.4338221180684E-01 -2.5037955924876E-01
     1  0.0000000000000E+00  5.0293857620232E-12 -8.8419185167998E-11
     2  1.0000000000000E-02  2.1624178953145E-05  4.0410467576573E-04
     3  2.0000000000000E-02  8.6916791243816E-05  1.6153701371728E-03
     4  3.0000000000000E-02  1.9713707156846E-04  3.6306493961771E-03
     5  4.0000000000000E-02  3.5438043613768E-04  6.4446932199759E-03
     6  5.0000000000000E-02  5.6157350981918E-04  1.0050143921816E-02
     7  6.0000000000000E-02  8.2246714351970E-04  1.4437527005599E-02
     8  7.0000000000000E-02  1.1416274017217E-03  1.9595240997567E-02
     9  8.0000000000000E-02  1.5244244950617E-03  2.5509545886754E-02
    10  9.0000000000000E-02  1.9770196284443E-03  3.2164550679776E-02
    11  1.0000000000000E-01  2.5063497313346E-03  3.9542200654068E-02
    12  1.1000000000000E-01  3.1201100339088E-03  4.7622264964809E-02
    13  1.2000000000000E-01  3.8267344505084E-03  5.6382325325088E-02
    14  1.3000000000000E-01  4.6353737306908E-03  6.5797766534513E-02
    15  1.4000000000000E-01  5.5558713378792E-03  7.5841769678284E-02
    16  1.5000000000000E-01  6.5987370166120E-03  8.6485308855716E-02
    17  1.6000000000000E-01  7.7751180112909E-03  9.7697152324511E-02
    18  1.7000000000000E-01  9.0967679026630E-03  1.0944386896309E-01
    19  1.8000000000000E-01  1.0576013032604E-02  1.2168984095914E-01
    20  1.9000000000000E-01  1.2225716493487E-02  1.3439728362667E-01
    21  2.0000000000000E-01  1.4059239665314E-02  1.4752627323677E-01
    22  2.1000000000000E-01  1.6090401291864E-02  1.6103478371954E-01
    23  2.2000000000000E-01  1.8333434096506E-02  1.7487873305448E-01
    24  2.3000000000000E-01  2.0802938948748E-02  1.8901204011673E-01
    25  2.4000000000000E-01  2.3513836604244E-02  2.0338669268509E-01
    26  2.5000000000000E-01  2.6481317053596E-02  2.1795282724635E-01
    27  2.6000000000000E-01  2.9720786528931E-02  2.3265882114912E-01
    28  2.7000000000000E-01  3.3247812231738E-02  2.4745139757018E-01
    29  2.8000000000000E-01  3.7078064860710E-02  2.6227574365712E-01
    30  2.9000000000000E-01  4.1227259034335E-02  2.7707564210489E-01
    31  3.0000000000000E-01  4.5711091719441E-02  2.9179361631032E-01
    32  3.1000000000000E-01  5.0545178793831E-02  3.0637108912964E-01
    33  3.2000000000000E-01  5.5744989888362E-02  3.2074855514011E-01
    34  3.3000000000000E-01  6.1325781671125E-02  3.3486576617912E-01
    35  3.4000000000000E-01  6.7302529753675E-02  3.4866192980408E-01
    36  3.5000000000000E-01  7.3689859416453E-02  3.6207592018434E-01
    37  3.6000000000000E-01  8.0501975367256E-02  3.7504650080499E-01
    38  3.7000000000000E-01  8.7752590762980E-02  3.8751255823109E-01
    39  3.8000000000000E-01  9.5454855740463E-02  3.9941334605230E-01
    40  3.9000000000000E-01  1.0362128571708E-01  4.1068873800267E-01
    41  4.0000000000000E-01  1.1226368973562E-01  4.2127948912981E-01
    42  4.1000000000000E-01  1.2139309914069E-01  4.3112750377275E-01
    43  4.2000000000000E-01  1.3101969688527E-01  4.4017610900012E-01
    44  4.3000000000000E-01  1.4115274777623E-01  4.4837033206087E-01
    45  4.4000000000000E-01  1.5180052997583E-01  4.5565718030896E-01
    46  4.5000000000000E-01  1.6297026808343E-01  4.6198592198326E-01
    47  4.6000000000000E-01  1.7466806812614E-01  4.6730836615495E-01
    48  4.7000000000000E-01  1.8689885479078E-01  4.7157914009688E-01
    49  4.8000000000000E-01  1.9966631123028E-01  4.7475596228526E-01
    50  4.9000000000000E-01  2.1297282177688E-01  4.7679990921220E-01
    51  5.0000000000000E-01  2.2681941789165E-01  4.7767567417043E-01
    52  5.1000000000000E-01  2.4120572767424E-01  4.7735181616818E-01
    53  5.2000000000000E-01  2.5612992925001E-01  4.7580099714334E-01
    54  5.3000000000000E-01  2.7158870834139E-01  4.7300020567247E-01
    55  5.4000000000000E-01  2.8757722031939E-01  4.6893096541078E-01
    56  5.5000000000000E-01  3.0408905701651E-01  4.6357952655520E-01
    57  5.6000000000000E-01  3.2111621856678E-01  4.5693703869272E-01
    58  5.7000000000000E-01  3.3864909052020E-01  4.4899970348097E-01
    59  5.8000000000000E-01  3.5667642645897E-01  4.3976890570632E-01
    60  5.9000000000000E-01  3.7518533632058E-01  4.2925132137666E-01
    61  6.0000000000000E-01  3.9416128060942E-01  4.1745900163020E-01
    62  6.1000000000000E-01  4.1358807065242E-01  4.0440943137800E-01
    63  6.2000000000000E-01  4.3344787502795E-01  3.9012556174502E-01
    64  6.3000000000000E-01  4.5372123226803E-01  3.7463581553156E-01
    65  6.4000000000000E-01  4.7438706990477E-01  3.5797406508273E-01
    66  6.5000000000000E-01  4.9542272990093E-01  3.4017958212733E-01
    67  6.6000000000000E-01  5.1680400047313E-01  3.2129695932736E-01
    68  6.7000000000000E-01  5.3850515428380E-01  3.0137600346416E-01