Ru    ONCVPSP-4.0.1  r_core=   2.26672   2.50936   2.26672
     44.0000     16.0000      210704    zatom,zion,pspd
     8      11   2     4   600     0    pspcod,pspxc,lmax,lloc,mmax,r2well
  5.99000000  7.00000000  0.00000000    rchrg fchrg qchrg
     2     2     2     0     0    nproj
     1     1           extension_switch
   0                         5.7997881583890E+00  1.1628460953915E+00
     1  0.0000000000000E+00  1.2849721287012E-12 -1.0008341377876E-11
     2  1.0000000000000E-02  5.4192538755557E-02 -1.2062368919252E-02
     3  2.0000000000000E-02  1.0830798215372E-01 -2.4081758602465E-02
     4  3.0000000000000E-02  1.6226935862758E-01 -3.6015234192654E-02
     5  4.0000000000000E-02  2.1599994404637E-01 -4.7819949833988E-02
     6  5.0000000000000E-02  2.6942338507093E-01 -5.9453193777441E-02
     7  6.0000000000000E-02  3.2246382207331E-01 -7.0872434205453E-02
     8  7.0000000000000E-02  3.7504601147349E-01 -8.2035366003530E-02
     9  8.0000000000000E-02  4.2709544734523E-01 -9.2899958696702E-02
    10  9.0000000000000E-02  4.7853848214130E-01 -1.0342450575647E-01
    11  1.0000000000000E-01  5.2930244638660E-01 -1.1356767546928E-01
    12  1.1000000000000E-01  5.7931576718572E-01 -1.2328856354061E-01
    13  1.2000000000000E-01  6.2850808538895E-01 -1.3254674759015E-01
    14  1.3000000000000E-01  6.7681037125860E-01 -1.4130234367254E-01
    15  1.4000000000000E-01  7.2415503847477E-01 -1.4951606493560E-01
    16  1.5000000000000E-01  7.7047605631702E-01 -1.5714928250385E-01
    17  1.6000000000000E-01  8.1570905985582E-01 -1.6416408864918E-01
    18  1.7000000000000E-01  8.5979145798462E-01 -1.7052336228391E-01
    19  1.8000000000000E-01  9.0266253912113E-01 -1.7619083678295E-01
    20  1.9000000000000E-01  9.4426357440331E-01 -1.8113117011296E-01
    21  2.0000000000000E-01  9.8453791820349E-01 -1.8531001721687E-01
    22  2.1000000000000E-01  1.0234311057816E+00 -1.8869410457130E-01
    23  2.2000000000000E-01  1.0608909478963E+00 -1.9125130680471E-01
    24  2.3000000000000E-01  1.0968676221918E+00 -1.9295072523269E-01
    25  2.4000000000000E-01  1.1313137611749E+00 -1.9376276813687E-01
    26  2.5000000000000E-01  1.1641845365992E+00 -1.9365923258372E-01
    27  2.6000000000000E-01  1.1954377400684E+00 -1.9261338754978E-01
    28  2.7000000000000E-01  1.2250338596752E+00 -1.9060005809136E-01
    29  2.8000000000000E-01  1.2529361524884E+00 -1.8759571026888E-01
    30  2.9000000000000E-01  1.2791107127062E+00 -1.8357853650947E-01
    31  3.0000000000000E-01  1.3035265352919E+00 -1.7852854106652E-01
    32  3.1000000000000E-01  1.3261555749121E+00 -1.7242762521085E-01
    33  3.2000000000000E-01  1.3469728000014E+00 -1.6525967176713E-01
    34  3.3000000000000E-01  1.3659562417799E+00 -1.5701062858864E-01
    35  3.4000000000000E-01  1.3830870380554E+00 -1.4766859054637E-01
    36  3.5000000000000E-01  1.3983494716472E+00 -1.3722387959252E-01
    37  3.6000000000000E-01  1.4117310032746E+00 -1.2566912244598E-01
    38  3.7000000000000E-01  1.4232222987620E+00 -1.1299932543624E-01
    39  3.8000000000000E-01  1.4328172504167E+00 -9.9211946035083E-02
    40  3.9000000000000E-01  1.4405129924483E+00 -8.4306960599453E-02
    41  4.0000000000000E-01  1.4463099103055E+00 -6.8286927847294E-02
    42  4.1000000000000E-01  1.4502116438188E+00 -5.1157047588205E-02
    43  4.2000000000000E-01  1.4522250840456E+00 -3.2925214234525E-02
    44  4.3000000000000E-01  1.4523603637308E+00 -1.3602064624747E-02
    45  4.4000000000000E-01  1.4506308413050E+00  6.7989802995618E-03
    46  4.5000000000000E-01  1.4470530783582E+00  2.8261680409595E-02
    47  4.6000000000000E-01  1.4416468105409E+00  5.0766948329135E-02
    48  4.7000000000000E-01  1.4344349118604E+00  7.4292828811417E-02
    49  4.8000000000000E-01  1.4254433523528E+00  9.8814485945068E-02
    50  4.9000000000000E-01  1.4147011491339E+00  1.2430419855745E-01
    51  5.0000000000000E-01  1.4022403108417E+00  1.5073136415749E-01
    52  5.1000000000000E-01  1.3880957755069E+00  1.7806251173084E-01
    53  5.2000000000000E-01  1.3723053419025E+00  2.0626132366925E-01
    54  5.3000000000000E-01  1.3549095944430E+00  2.3528866708194E-01
    55  5.4000000000000E-01  1.3359518217226E+00  2.6510263470106E-01
    56  5.5000000000000E-01  1.3154779288005E+00  2.9565859555578E-01
    57  5.6000000000000E-01  1.2935363433605E+00  3.2690925554927E-01
    58  5.7000000000000E-01  1.2701779158918E+00  3.5880472803215E-01
    59  5.8000000000000E-01  1.2454558140568E+00  3.9129261442291E-01
    60  5.9000000000000E-01  1.2194254114313E+00  4.2431809488184E-01
    61  6.0000000000000E-01  1.1921441708219E+00  4.5782402900015E-01
    62  6.1000000000000E-01  1.1636715223828E+00  4.9175106642004E-01
    63  6.2000000000000E-01  1.1340687367755E+00  5.2603776725493E-01
    64  6.3000000000000E-01  1.1033987936313E+00  5.6062073213261E-01
    65  6.4000000000000E-01  1.0717262455933E+00  5.9543474163693E-01
    66  6.5000000000000E-01  1.0391170782357E+00  6.3041290487670E-01
    67  6.6000000000000E-01  1.0056385661707E+00  6.6548681686453E-01
    68  6.7000000000000E-01  9.7135912567199E-01  7.0058672434166E-01
    69  6.8000000000000E-01  9.3634816415742E-01  7.3564169964045E-01
    70  6.9000000000000E-01  9.0067592688897E-01  7.7057982213148E-01
    71  7.0000000000000E-01  8.6441334126093E-01  8.0532836675968E-01
    72  7.1000000000000E-01  8.2763185905972E-01  8.3981399913250E-01
    73  7.2000000000000E-01  7.9040329709033E-01  8.7396297658292E-01
    74  7.3000000000000E-01  7.5279967657447E-01  9.0770135459290E-01
    75  7.4000000000000E-01  7.1489306173490E-01  9.4095519792645E-01
    76  7.5000000000000E-01  6.7675539798796E-01  9.7365079578792E-01
    77  7.6000000000000E-01  6.3845835017334E-01  1.0057148802905E+00
    78  7.7000000000000E-01  6.0007314125517E-01  1.0370748474902E+00
    79  7.8000000000000E-01  5.6167039193268E-01  1.0676589802162E+00
    80  7.9000000000000E-01  5.2331996160111E-01  1.0973966719036E+00
    81  8.0000000000000E-01  4.8509079110500E-01  1.1262186506159E+00
    82  8.1000000000000E-01  4.4705074772557E-01  1.1540572024272E+00
    83  8.2000000000000E-01  4.0926647284240E-01  1.1808463933199E+00
    84  8.3000000000000E-01  3.7180323270636E-01  1.2065222887432E+00
    85  8.4000000000000E-01  3.3472477275657E-01  1.2310231699718E+00
    86  8.5000000000000E-01  2.9809317590760E-01  1.2542897463972E+00
    87  8.6000000000000E-01  2.6196872522647E-01  1.2762653628876E+00
    88  8.7000000000000E-01  2.2640977140951E-01  1.2968962013513E+00
    89  8.8000000000000E-01  1.9147260545937E-01  1.3161314756493E+00
    90  8.9000000000000E-01  1.5721133695078E-01  1.3339236190069E+00
    91  9.0000000000000E-01  1.2367777826068E-01  1.3502284630936E+00
    92  9.1000000000000E-01  9.0921335124277E-02  1.3650054079517E+00
    93  9.2000000000000E-01  5.8988903863128E-02  1.3782175819770E+00
    94  9.3000000000000E-01  2.7924775614598E-02  1.3898319911766E+00
    95  9.4000000000000E-01 -2.2294521255253E-03  1.3998196569551E+00
    96  9.5000000000000E-01 -3.1434956354487E-02  1.4081557417098E+00
    97  9.6000000000000E-01 -5.9655761535134E-02  1.4148196615469E+00
    98  9.7000000000000E-01 -8.6858804437418E-02  1.4197951854654E+00
    99  9.8000000000000E-01 -1.1301399061844E-01  1.4230705203938E+00
   100  9.9000000000000E-01 -1.3809424233300E-01  1.4246383815029E+00
   101  1.0000000000000E+00 -1.6207553769004E-01  1.4244960472605E+00
   102  1.0100000000000E+00 -1.8493694089389E-01  1.4226453987400E+00
   103  1.0200000000000E+00 -2.0666062343409E-01  1.4190929427363E+00
   104  1.0300000000000E+00 -2.2723187611205E-01  1.4138498182968E+00
   105  1.0400000000000E+00 -2.4663911181815E-01  1.4069317863186E+00
   106  1.0500000000000E+00 -2.6487385899868E-01  1.3983592019178E+00
   107  1.0600000000000E+00 -2.8193074577750E-01  1.3881569693280E+00
   108  1.0700000000000E+00 -2.9780747472312E-01  1.3763544791371E+00
   109  1.0800000000000E+00 -3.1250478827815E-01  1.3629855277253E+00
   110  1.0900000000000E+00 -3.2602642489333E-01  1.3480882188241E+00
   111  1.1000000000000E+00 -3.3837906593447E-01  1.3317048471660E+00
   112  1.1100000000000E+00 -3.4957227345564E-01  1.3138817642543E+00
   113  1.1200000000000E+00 -3.5961841895715E-01  1.2946692263331E+00
   114  1.1300000000000E+00 -3.6853260327136E-01  1.2741212246934E+00
   115  1.1400000000000E+00 -3.7633256774349E-01  1.2522952985058E+00
   116  1.1500000000000E+00 -3.8303859689792E-01  1.2292523304215E+00
   117  1.1600000000000E+00 -3.8867341280329E-01  1.2050563252354E+00
   118  1.1700000000000E+00 -3.9326206137178E-01  1.1797741719579E+00
   119  1.1800000000000E+00 -3.9683179084891E-01  1.1534753896893E+00
   120  1.1900000000000E+00 -3.9941192277051E-01  1.1262318577390E+00
   121  1.2000000000000E+00 -4.0103371568278E-01  1.0981175304791E+00
   122  1.2100000000000E+00 -4.0173022193950E-01  1.0692081374645E+00
   123  1.2200000000000E+00 -4.0153613790745E-01  1.0395808693959E+00
   124  1.2300000000000E+00 -4.0048764792713E-01  1.0093140505398E+00
   125  1.2400000000000E+00 -3.9862226239044E-01  9.7848679825891E-01
   126  1.2500000000000E+00 -3.9597865031049E-01  9.4717867034148E-01
   127  1.2600000000000E+00 -3.9259646677071E-01  9.1546930084888E-01
   128  1.2700000000000E+00 -3.8851617565123E-01  8.8343802523300E-01
   129  1.2800000000000E+00 -3.8377886803994E-01  8.5116349549990E-01
   130  1.2900000000000E+00 -3.7842607674356E-01  8.1872328622132E-01
   131  1.3000000000000E+00 -3.7249958732054E-01  7.8619349221622E-01
   132  1.3100000000000E+00 -3.6604124606294E-01  7.5364831874247E-01
   133  1.3200000000000E+00 -3.5909276535779E-01  7.2115966505375E-01
   134  1.3300000000000E+00 -3.5169552686102E-01  6.8879670218829E-01
   135  1.3400000000000E+00 -3.4389038291743E-01  6.5662544586442E-01
   136  1.3500000000000E+00 -3.3571745665983E-01  6.2470832536344E-01
   137  1.3600000000000E+00 -3.2721594121809E-01  5.9310374928201E-01
   138  1.3700000000000E+00 -3.1842389846556E-01  5.6186566903559E-01
   139  1.3800000000000E+00 -3.0937805771733E-01  5.3104314095288E-01
   140  1.3900000000000E+00 -3.0011361457049E-01  5.0067988682121E-01
   141  1.4000000000000E+00 -2.9066403377291E-01  4.7081386963079E-01
   142  1.4100000000000E+00 -2.8106084226621E-01  4.4147681983546E-01
   143  1.4200000000000E+00 -2.7133374616182E-01  4.1269524539041E-01
   144  1.4300000000000E+00 -2.6151125643346E-01  3.8449362308564E-01
   145  1.4400000000000E+00 -2.5162091644636E-01  3.5689552234542E-01
   146  1.4500000000000E+00 -2.4168927438328E-01  3.2992349859755E-01
   147  1.4600000000000E+00 -2.3174186956298E-01  3.0359904731548E-01
   148  1.4700000000000E+00 -2.2180321771319E-01  2.7794254742708E-01
   149  1.4800000000000E+00 -2.1189679833203E-01  2.5297320931120E-01
   150  1.4900000000000E+00 -2.0204504392600E-01  2.2870902644742E-01
   151  1.5000000000000E+00 -1.9226933110007E-01  2.0516673071851E-01
   152  1.5100000000000E+00 -1.8258997350748E-01  1.8236175150095E-01
   153  1.5200000000000E+00 -1.7302621663945E-01  1.6030817855993E-01
   154  1.5300000000000E+00 -1.6359623445403E-01  1.3901872884334E-01
   155  1.5400000000000E+00 -1.5431712781535E-01  1.1850471715252E-01
   156  1.5500000000000E+00 -1.4520492474959E-01  9.8776030810419E-02
   157  1.5600000000000E+00 -1.3627458248355E-01  7.9841108282105E-02
   158  1.5700000000000E+00 -1.2753999125336E-01  6.1706921790491E-02
   159  1.5800000000000E+00 -1.1901397986626E-01  4.4378963951281E-02
   160  1.5900000000000E+00 -1.1070832298733E-01  2.7861238406907E-02
   161  1.6000000000000E+00 -1.0263375012482E-01  1.2156254448139E-02
   162  1.6100000000000E+00 -9.4799956290639E-02 -2.7349743776311E-03
   163  1.6200000000000E+00 -8.7215614306368E-02 -1.6812927695303E-02
   164  1.6300000000000E+00 -7.9888388713086E-02 -3.0079571836550E-02
   165  1.6400000000000E+00 -7.2824951261951E-02 -4.2538349477515E-02
   166  1.6500000000000E+00 -6.6030997942997E-02 -5.4194165449817E-02
   167  1.6600000000000E+00 -5.9511267506181E-02 -6.5053368806185E-02
   168  1.6700000000000E+00 -5.3269561445156E-02 -7.5123731160191E-02
   169  1.6800000000000E+00 -4.7308765386249E-02 -8.4414421422168E-02
   170  1.6900000000000E+00 -4.1630871846579E-02 -9.2935976973351E-02
   171  1.7000000000000E+00 -3.6237004301411E-02 -1.0070027140631E-01
   172  1.7100000000000E+00 -3.1127442515823E-02 -1.0772047890420E-01
   173  1.7200000000000E+00 -2.6301649089883E-02 -1.1401103535222E-01
   174  1.7300000000000E+00 -2.1758297147339E-02 -1.1958759634226E-01
   175  1.7400000000000E+00 -1.7495299124904E-02 -1.2446699213392E-01
   176  1.7500000000000E+00 -1.3509836596399E-02 -1.2866717971644E-01
   177  1.7600000000000E+00 -9.7983910623510E-03 -1.3220719212742E-01
   178  1.7700000000000E+00 -6.3567756533993E-03 -1.3510708512156E-01
   179  1.7800000000000E+00 -3.1801676713040E-03 -1.3738788136840E-01
   180  1.7900000000000E+00 -2.6314190808764E-04 -1.3907151229920E-01
   181  1.8000000000000E+00  2.4002953333256E-03 -1.4018075778236E-01
   182  1.8100000000000E+00  4.8166715838059E-03 -1.4073918377289E-01
   183  1.8200000000000E+00  6.9930129855827E-03 -1.4077107808402E-01
   184  1.8300000000000E+00  8.9368085821213E-03 -1.4030138446986E-01
   185  1.8400000000000E+00  1.0655974202294E-02 -1.3935563521633E-01
   186  1.8500000000000E+00  1.2158815985852E-02 -1.3795988232039E-01
   187  1.8600000000000E+00  1.3453993622654E-02 -1.3614062742441E-01
   188  1.8700000000000E+00  1.4550483520023E-02 -1.3392475114782E-01
   189  1.8800000000000E+00  1.5457541678046E-02 -1.3133944100317E-01
   190  1.8900000000000E+00  1.6184666666703E-02 -1.2841211914201E-01
   191  1.9000000000000E+00  1.6741562600066E-02 -1.2517036950635E-01
   192  1.9100000000000E+00  1.7138102229699E-02 -1.2164186472245E-01
   193  1.9200000000000E+00  1.7384290242816E-02 -1.1785429295252E-01
   194  1.9300000000000E+00  1.7490226829550E-02 -1.1383528485032E-01
   195  1.9400000000000E+00  1.7466071604940E-02 -1.0961234083872E-01
   196  1.9500000000000E+00  1.7322007960594E-02 -1.0521275889344E-01
   197  1.9600000000000E+00  1.7068207912294E-02 -1.0066356299024E-01
   198  1.9700000000000E+00  1.6714797531116E-02 -9.5991432444519E-02
   199  1.9800000000000E+00  1.6271823019045E-02 -9.1222632286855E-02
   200  1.9900000000000E+00  1.5749217509534E-02 -8.6382944883441E-02
   201  2.0000000000000E+00  1.5156768660285E-02 -8.1497602969406E-02
   202  2.0100000000000E+00  1.4504087103291E-02 -7.6591224257839E-02
   203  2.0200000000000E+00  1.3800575823644E-02 -7.1687747810317E-02
   204  2.0300000000000E+00  1.3055400533941E-02 -6.6810372341486E-02
   205  2.0400000000000E+00  1.2277461099778E-02 -6.1981496596237E-02
   206  2.0500000000000E+00  1.1475364080734E-02 -5.7222661968852E-02
   207  2.0600000000000E+00  1.0657396447038E-02 -5.2554497522061E-02
   208  2.0700000000000E+00  9.8315005254314E-03 -4.7996667545063E-02
   209  2.0800000000000E+00  9.0052502228300E-03 -4.3567821776383E-02
   210  2.0900000000000E+00  8.1858285858810E-03 -3.9285548449683E-02
   211  2.1000000000000E+00  7.3800067342229E-03 -3.5166330259090E-02
   212  2.1100000000000E+00  6.5941242434224E-03 -3.1225503495677E-02
   213  2.1200000000000E+00  5.8340710776584E-03 -2.7477220728386E-02
   214  2.1300000000000E+00  5.1052685460471E-03 -2.3934405973688E-02
   215  2.1400000000000E+00  4.4126633538730E-03 -2.0608762828138E-02
   216  2.1500000000000E+00  3.7606986644570E-03 -1.7510683889738E-02
   217  2.1600000000000E+00  3.1531701218425E-03 -1.4648635866466E-02
   218  2.1700000000000E+00  2.5931712050167E-03 -1.2028926910145E-02
   219  2.1800000000000E+00  2.0837142692259E-03 -9.6584700346071E-03
   220  2.1900000000000E+00  1.6273532205701E-03 -7.5431727135473E-03
   221  2.2000000000000E+00  1.2260324377028E-03 -5.6872925439453E-03
   222  2.2100000000000E+00  8.8113562875815E-04 -4.0936522156426E-03
   223  2.2200000000000E+00  5.9347661351338E-04 -2.7636035752199E-03
   224  2.2300000000000E+00  3.6337590162594E-04 -1.6973947555978E-03
   225  2.2400000000000E+00  1.9026194123747E-04 -8.9224927502699E-04
   226  2.2500000000000E+00  7.3065215681648E-05 -3.4426483140710E-04
   227  2.2600000000000E+00  1.3878223441841E-05 -6.5795489843528E-05
   228  2.2700000000000E+00 -2.0461795836789E-06  9.7279908713500E-06
   229  2.2800000000000E+00 -1.1047003057493E-07  5.2712085991510E-07
   230  2.29  0. -0.
   231  2.30 -0.  0.
   232  2.31 -0.  0.
   233  2.32 -0.  0.
   234  2.33  0.  0.
   235  2.34  0.  0.
   236  2.35  0.  0.
   237  2.36  0.  0.
   238  2.37  0.  0.
   239  2.38  0.  0.
   240  2.39  0.  0.
   241  2.40  0.  0.
   242  2.41  0.  0.
   243  2.42  0.  0.
   244  2.43  0.  0.
   245  2.44  0.  0.
   246  2.45  0.  0.
   247  2.46  0.  0.
   248  2.47  0.  0.
   249  2.48  0.  0.
   250  2.49  0.  0.
   251  2.50  0.  0.
   252  2.51  0.  0.
   253  2.52  0.  0.
   254  2.53  0.  0.
   255  2.54  0.  0.
   256  2.55  0.  0.
   257  2.56  0.  0.
   258  2.57  0.  0.
   259  2.58  0.  0.
   260  2.59  0.  0.
   261  2.60  0.  0.
   262  2.61  0.  0.
   263  2.62  0.  0.
   264  2.63  0.  0.
   265  2.64  0.  0.
   266  2.65  0.  0.
   267  2.66  0.  0.
   268  2.67  0.  0.
   269  2.68  0.  0.
   270  2.69  0.  0.
   271  2.70  0.  0.
   272  2.71  0.  0.
   273  2.72  0.  0.
   274  2.73  0.  0.
   275  2.74  0.  0.
   276  2.75  0.  0.
   277  2.76  0.  0.
   278  2.77  0.  0.
   279  2.78  0.  0.
   280  2.79  0.  0.
   281  2.80  0.  0.
   282  2.81  0.  0.
   283  2.82  0.  0.
   284  2.83  0.  0.
   285  2.84  0.  0.
   286  2.85  0.  0.
   287  2.86  0.  0.
   288  2.87  0.  0.
   289  2.88  0.  0.
   290  2.89  0.  0.
   291  2.90  0.  0.
   292  2.91  0.  0.
   293  2.92  0.  0.
   294  2.93  0.  0.
   295  2.94  0.  0.
   296  2.95  0.  0.
   297  2.96  0.  0.
   298  2.97  0.  0.
   299  2.98  0.  0.
   300  2.99  0.  0.
   301  3.00  0.  0.
   302  3.01  0.  0.
   303  3.02  0.  0.
   304  3.03  0.  0.
   305  3.04  0.  0.
   306  3.05  0.  0.
   307  3.06  0.  0.
   308  3.07  0.  0.
   309  3.08  0.  0.
   310  3.09  0.  0.
   311  3.10  0.  0.
   312  3.11  0.  0.
   313  3.12  0.  0.
   314  3.13  0.  0.
   315  3.14  0.  0.
   316  3.15  0.  0.
   317  3.16  0.  0.
   318  3.17  0.  0.
   319  3.18  0.  0.
   320  3.19  0.  0.
   321  3.20  0.  0.
   322  3.21  0.  0.
   323  3.22  0.  0.
   324  3.23  0.  0.
   325  3.24  0.  0.
   326  3.25  0.  0.
   327  3.26  0.  0.
   328  3.27  0.  0.
   329  3.28  0.  0.
   330  3.29  0.  0.
   331  3.30  0.  0.
   332  3.31  0.  0.
   333  3.32  0.  0.
   334  3.33  0.  0.
   335  3.34  0.  0.
   336  3.35  0.  0.
   337  3.36  0.  0.
   338  3.37  0.  0.
   339  3.38  0.  0.
   340  3.39  0.  0.
   341  3.40  0.  0.
   342  3.41  0.  0.
   343  3.42  0.  0.
   344  3.43  0.  0.
   345  3.44  0.  0.
   346  3.45  0.  0.
   347  3.46  0.  0.
   348  3.47  0.  0.
   349  3.48  0.  0.
   350  3.49  0.  0.
   351  3.50  0.  0.
   352  3.51  0.  0.
   353  3.52  0.  0.
   354  3.53  0.  0.
   355  3.54  0.  0.
   356  3.55  0.  0.
   357  3.56  0.  0.
   358  3.57  0.  0.
   359  3.58  0.  0.
   360  3.59  0.  0.
   361  3.60  0.  0.
   362  3.61  0.  0.
   363  3.62  0.  0.
   364  3.63  0.  0.
   365  3.64  0.  0.
   366  3.65  0.  0.
   367  3.66  0.  0.
   368  3.67  0.  0.
   369  3.68  0.  0.
   370  3.69  0.  0.
   371  3.70  0.  0.
   372  3.71  0.  0.
   373  3.72  0.  0.
   374  3.73  0.  0.
   375  3.74  0.  0.
   376  3.75  0.  0.
   377  3.76  0.  0.
   378  3.77  0.  0.
   379  3.78  0.  0.
   380  3.79  0.  0.
   381  3.80  0.  0.
   382  3.81  0.  0.
   383  3.82  0.  0.
   384  3.83  0.  0.
   385  3.84  0.  0.
   386  3.85  0.  0.
   387  3.86  0.  0.
   388  3.87  0.  0.
   389  3.88  0.  0.
   390  3.89  0.  0.
   391  3.90  0.  0.
   392  3.91  0.  0.
   393  3.92  0.  0.
   394  3.93  0.  0.
   395  3.94  0.  0.
   396  3.95  0.  0.
   397  3.96  0.  0.
   398  3.97  0.  0.
   399  3.98  0.  0.
   400  3.99  0.  0.
   401  4.00  0.  0.
   402  4.01  0.  0.
   403  4.02  0.  0.
   404  4.03  0.  0.
   405  4.04  0.  0.
   406  4.05  0.  0.
   407  4.06  0.  0.
   408  4.07  0.  0.
   409  4.08  0.  0.
   410  4.09  0.  0.
   411  4.10  0.  0.
   412  4.11  0.  0.
   413  4.12  0.  0.
   414  4.13  0.  0.
   415  4.14  0.  0.
   416  4.15  0.  0.
   417  4.16  0.  0.
   418  4.17  0.  0.
   419  4.18  0.  0.
   420  4.19  0.  0.
   421  4.20  0.  0.
   422  4.21  0.  0.
   423  4.22  0.  0.
   424  4.23  0.  0.
   425  4.24  0.  0.
   426  4.25  0.  0.
   427  4.26  0.  0.
   428  4.27  0.  0.
   429  4.28  0.  0.
   430  4.29  0.  0.
   431  4.30  0.  0.
   432  4.31  0.  0.
   433  4.32  0.  0.
   434  4.33  0.  0.
   435  4.34  0.  0.
   436  4.35  0.  0.
   437  4.36  0.  0.
   438  4.37  0.  0.
   439  4.38  0.  0.
   440  4.39  0.  0.
   441  4.40  0.  0.
   442  4.41  0.  0.
   443  4.42  0.  0.
   444  4.43  0.  0.
   445  4.44  0.  0.
   446  4.45  0.  0.
   447  4.46  0.  0.
   448  4.47  0.  0.
   449  4.48  0.  0.
   450  4.49  0.  0.
   451  4.50  0.  0.
   452  4.51  0.  0.
   453  4.52  0.  0.
   454  4.53  0.  0.
   455  4.54  0.  0.
   456  4.55  0.  0.
   457  4.56  0.  0.
   458  4.57  0.  0.
   459  4.58  0.  0.
   460  4.59  0.  0.
   461  4.60  0.  0.
   462  4.61  0.  0.
   463  4.62  0.  0.
   464  4.63  0.  0.
   465  4.64  0.  0.
   466  4.65  0.  0.
   467  4.66  0.  0.
   468  4.67  0.  0.
   469  4.68  0.  0.
   470  4.69  0.  0.
   471  4.70  0.  0.
   472  4.71  0.  0.
   473  4.72  0.  0.
   474  4.73  0.  0.
   475  4.74  0.  0.
   476  4.75  0.  0.
   477  4.76  0.  0.
   478  4.77  0.  0.
   479  4.78  0.  0.
   480  4.79  0.  0.
   481  4.80  0.  0.
   482  4.81  0.  0.
   483  4.82  0.  0.
   484  4.83  0.  0.
   485  4.84  0.  0.
   486  4.85  0.  0.
   487  4.86  0.  0.
   488  4.87  0.  0.
   489  4.88  0.  0.
   490  4.89  0.  0.
   491  4.90  0.  0.
   492  4.91  0.  0.
   493  4.92  0.  0.
   494  4.93  0.  0.
   495  4.94  0.  0.
   496  4.95  0.  0.
   497  4.96  0.  0.
   498  4.97  0.  0.
   499  4.98  0.  0.
   500  4.99  0.  0.
   501  5.00  0.  0.
   502  5.01  0.  0.
   503  5.02  0.  0.
   504  5.03  0.  0.
   505  5.04  0.  0.
   506  5.05  0.  0.
   507  5.06  0.  0.
   508  5.07  0.  0.
   509  5.08  0.  0.
   510  5.09  0.  0.
   511  5.10  0.  0.
   512  5.11  0.  0.
   513  5.12  0.  0.
   514  5.13  0.  0.
   515  5.14  0.  0.
   516  5.15  0.  0.
   517  5.16  0.  0.
   518  5.17  0.  0.
   519  5.18  0.  0.
   520  5.19  0.  0.
   521  5.20  0.  0.
   522  5.21  0.  0.
   523  5.22  0.  0.
   524  5.23  0.  0.
   525  5.24  0.  0.
   526  5.25  0.  0.
   527  5.26  0.  0.
   528  5.27  0.  0.
   529  5.28  0.  0.
   530  5.29  0.  0.
   531  5.30  0.  0.
   532  5.31  0.  0.
   533  5.32  0.  0.
   534  5.33  0.  0.
   535  5.34  0.  0.
   536  5.35  0.  0.
   537  5.36  0.  0.
   538  5.37  0.  0.
   539  5.38  0.  0.
   540  5.39  0.  0.
   541  5.40  0.  0.
   542  5.41  0.  0.
   543  5.42  0.  0.
   544  5.43  0.  0.
   545  5.44  0.  0.
   546  5.45  0.  0.
   547  5.46  0.  0.
   548  5.47  0.  0.
   549  5.48  0.  0.
   550  5.49  0.  0.
   551  5.50  0.  0.
   552  5.51  0.  0.
   553  5.52  0.  0.
   554  5.53  0.  0.
   555  5.54  0.  0.
   556  5.55  0.  0.
   557  5.56  0.  0.
   558  5.57  0.  0.
   559  5.58  0.  0.
   560  5.59  0.  0.
   561  5.60  0.  0.
   562  5.61  0.  0.
   563  5.62  0.  0.
   564  5.63  0.  0.
   565  5.64  0.  0.
   566  5.65  0.  0.
   567  5.66  0.  0.
   568  5.67  0.  0.
   569  5.68  0.  0.
   570  5.69  0.  0.
   571  5.70  0.  0.
   572  5.71  0.  0.
   573  5.72  0.  0.
   574  5.73  0.  0.
   575  5.74  0.  0.
   576  5.75  0.  0.
   577  5.76  0.  0.
   578  5.77  0.  0.
   579  5.78  0.  0.
   580  5.79  0.  0.
   581  5.80  0.  0.
   582  5.81  0.  0.
   583  5.82  0.  0.
   584  5.83  0.  0.
   585  5.84  0.  0.
   586  5.85  0.  0.
   587  5.86  0.  0.
   588  5.87  0.  0.
   589  5.88  0.  0.
   590  5.89  0.  0.
   591  5.90  0.  0.
   592  5.91  0.  0.
   593  5.92  0.  0.
   594  5.93  0.  0.
   595  5.94  0.  0.
   596  5.95  0.  0.
   597  5.96  0.  0.
   598  5.97  0.  0.
   599  5.98  0.  0.
   600  5.99  0.  0.
   1                         8.4119994525184E+00  1.3000279178214E+00
     1  0.0000000000000E+00  2.3766665024905E-10 -1.4660301098091E-10
     2  1.0000000000000E-02  1.6508408526142E-03 -1.8615749312080E-04
     3  2.0000000000000E-02  6.5963652654933E-03 -7.4188737454148E-04
     4  3.0000000000000E-02  1.4815607702847E-02 -1.6589773871437E-03
     5  4.0000000000000E-02  2.6273721812170E-02 -2.9237921485298E-03
     6  5.0000000000000E-02  4.0922124303808E-02 -4.5173504533292E-03
     7  6.0000000000000E-02  5.8698695522258E-02 -6.4154329641878E-03
     8  7.0000000000000E-02  7.9528035853478E-02 -8.5887197620461E-03
     9  8.0000000000000E-02  1.0332177687486E-01 -1.1002957079707E-02
    10  9.0000000000000E-02  1.2997894592136E-01 -1.3619152399040E-02
    11  1.0000000000000E-01  1.5938638251438E-01 -1.6393796952616E-02
    12  1.1000000000000E-01  1.9141920487948E-01 -1.9279114535328E-02
    13  1.2000000000000E-01  2.2594132456740E-01 -2.2223335402303E-02
    14  1.3000000000000E-01  2.6280600698867E-01 -2.5170993905020E-02
    15  1.4000000000000E-01  3.0185647547932E-01 -2.8063248400725E-02
    16  1.5000000000000E-01  3.4292655633139E-01 -3.0838221859425E-02
    17  1.6000000000000E-01  3.8584136205079E-01 -3.3431361490581E-02
    18  1.7000000000000E-01  4.3041800994543E-01 -3.5775815616308E-02
    19  1.8000000000000E-01  4.7646637299973E-01 -3.7802825932317E-02
    20  1.9000000000000E-01  5.2378985985869E-01 -3.9442133220114E-02
    21  2.0000000000000E-01  5.7218622062538E-01 -4.0622394506258E-02
    22  2.1000000000000E-01  6.2144837507109E-01 -4.1271609605961E-02
    23  2.2000000000000E-01  6.7136525976787E-01 -4.1317554939671E-02
    24  2.3000000000000E-01  7.2172269057867E-01 -4.0688222473069E-02
    25  2.4000000000000E-01  7.7230423688196E-01 -3.9312261602341E-02
    26  2.5000000000000E-01  8.2289210386434E-01 -3.7119421788922E-02
    27  2.6000000000000E-01  8.7326801918850E-01 -3.4040993740397E-02
    28  2.7000000000000E-01  9.2321412033246E-01 -3.0010246937266E-02
    29  2.8000000000000E-01  9.7251383890187E-01 -2.4962861318653E-02
    30  2.9000000000000E-01  1.0209527782381E+00 -1.8837350963848E-02
    31  3.0000000000000E-01  1.0683195806821E+00 -1.1575477640591E-02
    32  3.1000000000000E-01  1.1144067809071E+00 -3.1226521348295E-03
    33  3.2000000000000E-01  1.1590116418007E+00  6.5716786692984E-03
    34  3.3000000000000E-01  1.2019369694609E+00  1.7553660927424E-02
    35  3.4000000000000E-01  1.2429919039670E+00  2.9864681086238E-02
    36  3.5000000000000E-01  1.2819926827004E+00  4.3541033062446E-02
    37  3.6000000000000E-01  1.3187633731118E+00  5.8613607073543E-02
    38  3.7000000000000E-01  1.3531365719746E+00  7.5107601747139E-02
    39  3.8000000000000E-01  1.3849540683094E+00  9.3042261029934E-02
    40  3.9000000000000E-01  1.4140674673304E+00  1.1243063730526E-01
    41  4.0000000000000E-01  1.4403387729362E+00  1.3327938200928E-01
    42  4.1000000000000E-01  1.4636409264485E+00  1.5558856491115E-01
    43  4.2000000000000E-01  1.4838582994967E+00  1.7935152309256E-01
    44  4.3000000000000E-01  1.5008871391445E+00  2.0455474052729E-01
    45  4.4000000000000E-01  1.5146359635629E+00  2.3117775902265E-01
    46  4.5000000000000E-01  1.5250259067675E+00  2.5919312114263E-01
    47  4.6000000000000E-01  1.5319910111557E+00  2.8856634558772E-01
    48  4.7000000000000E-01  1.5354784668061E+00  3.1925593535928E-01
    49  4.8000000000000E-01  1.5354487967256E+00  3.5121341888817E-01
    50  4.9000000000000E-01  1.5318759874614E+00  3.8438342415840E-01
    51  5.0000000000000E-01  1.5247475647241E+00  4.1870378570738E-01
    52  5.1000000000000E-01  1.5140646139011E+00  4.5410568423608E-01
    53  5.2000000000000E-01  1.4998417455670E+00  4.9051381841552E-01
    54  5.3000000000000E-01  1.4821070063295E+00  5.2784660833060E-01
    55  5.4000000000000E-01  1.4609017355718E+00  5.6601642986043E-01
    56  5.5000000000000E-01  1.4362803688791E+00  6.0492987915447E-01
    57  5.6000000000000E-01  1.4083101891503E+00  6.4448806622927E-01
    58  5.7000000000000E-01  1.3770710266128E+00  6.8458693657907E-01
    59  5.8000000000000E-01  1.3426549091603E+00  7.2511761956812E-01
    60  5.9000000000000E-01  1.3051656646358E+00  7.6596680225215E-01
    61  6.0000000000000E-01  1.2647184768719E+00  8.0701712716203E-01
    62  6.1000000000000E-01  1.2214393974818E+00  8.4814761247525E-01
    63  6.2000000000000E-01  1.1754648155688E+00  8.8923409289942E-01
    64  6.3000000000000E-01  1.1269408876845E+00  9.3014967949927E-01
    65  6.4000000000000E-01  1.0760229305177E+00  9.7076523661208E-01
    66  6.5000000000000E-01  1.0228747789369E+00  1.0109498739193E+00
    67  6.6000000000000E-01  9.6766811213790E-01  1.0505714516724E+00
    68  6.7000000000000E-01  9.1058175076765E-01  1.0894970970091E+00
    69  6.8000000000000E-01  8.5180092799450E-01  1.1275937292468E+00
    70  6.9000000000000E-01  7.9151653759195E-01  1.1647285919923E+00
    71  7.0000000000000E-01  7.2992436217769E-01  1.2007697898766E+00
    72  7.1000000000000E-01  6.6722428481557E-01  1.2355868276960E+00
    73  7.2000000000000E-01  6.0361948723982E-01  1.2690511497251E+00
    74  7.3000000000000E-01  5.3931563799794E-01  1.3010366769606E+00
    75  7.4000000000000E-01  4.7452007383329E-01  1.3314203400555E+00
    76  7.5000000000000E-01  4.0944097763850E-01  1.3600826057163E+00
    77  7.6000000000000E-01  3.4428655630863E-01  1.3869079943525E+00
    78  7.7000000000000E-01  2.7926422180613E-01  1.4117855867984E+00
    79  7.8000000000000E-01  2.1457977872103E-01  1.4346095179624E+00
    80  7.9000000000000E-01  1.5043662156771E-01  1.4552794553039E+00
    81  8.0000000000000E-01  8.7034945004950E-02  1.4737010600917E+00