Rh    ONCVPSP-4.0.1  r_core=   1.90848   2.35298   2.10018
     45.0000     17.0000      210715    zatom,zion,pspd
     8      11   2     4   600     0    pspcod,pspxc,lmax,lloc,mmax,r2well
  5.99000000  7.00000000  0.00000000    rchrg fchrg qchrg
     2     2     2     0     0    nproj
     1     1           extension_switch
   0                         1.1231362989493E+01  1.8858846179081E+00
     1  0.0000000000000E+00  3.6674108194745E-11 -1.2512715863444E-10
     2  1.0000000000000E-02  6.0196851709449E-02 -1.7931138515777E-02
     3  2.0000000000000E-02  1.2030387605706E-01 -3.5817752871978E-02
     4  3.0000000000000E-02  1.8023132427520E-01 -5.3615120917408E-02
     5  4.0000000000000E-02  2.3988960555332E-01 -7.1278127897667E-02
     6  5.0000000000000E-02  2.9918936792868E-01 -8.8761078571734E-02
     7  6.0000000000000E-02  3.5804158144563E-01 -1.0601751934138E-01
     8  7.0000000000000E-02  4.1635762429642E-01 -1.2300007358332E-01
     9  8.0000000000000E-02  4.7404937261955E-01 -1.3966029324896E-01
    10  9.0000000000000E-02  5.3102929458687E-01 -1.5594852964156E-01
    11  1.0000000000000E-01  5.8721054935647E-01 -1.7181382609785E-01
    12  1.1000000000000E-01  6.4250709140740E-01 -1.8720383509040E-01
    13  1.2000000000000E-01  6.9683378070322E-01 -2.0206476203158E-01
    14  1.3000000000000E-01  7.5010649905572E-01 -2.1634133780032E-01
    15  1.4000000000000E-01  8.0224227297831E-01 -2.2997682173154E-01
    16  1.5000000000000E-01  8.5315940323124E-01 -2.4291303650730E-01
    17  1.6000000000000E-01  9.0277760116829E-01 -2.5509043607072E-01
    18  1.7000000000000E-01  9.5101813189857E-01 -2.6644820735071E-01
    19  1.8000000000000E-01  9.9780396417732E-01 -2.7692440624096E-01
    20  1.9000000000000E-01  1.0430599268377E+00 -2.8645612792228E-01
    21  2.0000000000000E-01  1.0867128714720E+00 -2.9497971125742E-01
    22  2.1000000000000E-01  1.1286918409677E+00 -3.0243097662363E-01
    23  2.2000000000000E-01  1.1689282433978E+00 -3.0874549618466E-01
    24  2.3000000000000E-01  1.2073560306664E+00 -3.1385889524351E-01
    25  2.4000000000000E-01  1.2439118812064E+00 -3.1770718296288E-01
    26  2.5000000000000E-01  1.2785353859335E+00 -3.2022711039569E-01
    27  2.6000000000000E-01  1.3111692365653E+00 -3.2135655343640E-01
    28  2.7000000000000E-01  1.3417594153300E+00 -3.2103491798794E-01
    29  2.8000000000000E-01  1.3702553850051E+00 -3.1920356434266E-01
    30  2.9000000000000E-01  1.3966102781571E+00 -3.1580624750129E-01
    31  3.0000000000000E-01  1.4207810843827E+00 -3.1078956990452E-01
    32  3.1000000000000E-01  1.4427288342985E+00 -3.0410344283053E-01
    33  3.2000000000000E-01  1.4624187789772E+00 -2.9570155252039E-01
    34  3.3000000000000E-01  1.4798205634906E+00 -2.8554182693554E-01
    35  3.4000000000000E-01  1.4949083931941E+00 -2.7358689892707E-01
    36  3.5000000000000E-01  1.5076611913718E+00 -2.5980456151034E-01
    37  3.6000000000000E-01  1.5180627468574E+00 -2.4416821088918E-01
    38  3.7000000000000E-01  1.5261018502547E+00 -2.2665727286423E-01
    39  3.8000000000000E-01  1.5317724174044E+00 -2.0725760829062E-01
    40  3.9000000000000E-01  1.5350735987733E+00 -1.8596189332117E-01
    41  4.0000000000000E-01  1.5360098734925E+00 -1.6276997028269E-01
    42  4.1000000000000E-01  1.5345911268242E+00 -1.3768916518517E-01
    43  4.2000000000000E-01  1.5308327099133E+00 -1.1073456805526E-01
    44  4.3000000000000E-01  1.5247554807545E+00 -8.1929272514996E-02
    45  4.4000000000000E-01  1.5163858254059E+00 -5.1304571294785E-02
    46  4.5000000000000E-01  1.5057556585788E+00 -1.8900104670784E-02
    47  4.6000000000000E-01  1.4929024028512E+00  1.5236040847230E-02
    48  4.7000000000000E-01  1.4778689458720E+00  5.1047285886813E-02
    49  4.8000000000000E-01  1.4607035750590E+00  8.8468565558922E-02
    50  4.9000000000000E-01  1.4414598894272E+00  1.2742639227949E-01
    51  5.0000000000000E-01  1.4201966883339E+00  1.6783897512980E-01
    52  5.1000000000000E-01  1.3969778370734E+00  2.0961639636595E-01
    53  5.2000000000000E-01  1.3718721094111E+00  2.5266084522184E-01
    54  5.3000000000000E-01  1.3449530072993E+00  2.9686690867647E-01
    55  5.4000000000000E-01  1.3162985581798E+00  3.4212191837855E-01
    56  5.5000000000000E-01  1.2859910904303E+00  3.8830635244394E-01
    57  5.6000000000000E-01  1.2541169876723E+00  4.3529429037018E-01
    58  5.7000000000000E-01  1.2207664228084E+00  4.8295391884905E-01
    59  5.8000000000000E-01  1.1860330728077E+00  5.3114808580980E-01
    60  5.9000000000000E-01  1.1500138153995E+00  5.7973489959558E-01
    61  6.0000000000000E-01  1.1128084089749E+00  6.2856836976687E-01
    62  6.1000000000000E-01  1.0745191571215E+00  6.7749908564451E-01
    63  6.2000000000000E-01  1.0352505593400E+00  7.2637492835208E-01
    64  6.3000000000000E-01  9.9510894959639E-01  7.7504181179895E-01
    65  6.4000000000000E-01  9.5420212446563E-01  8.2334444776216E-01
    66  6.5000000000000E-01  9.1263896270847E-01  8.7112712998084E-01
    67  6.6000000000000E-01  8.7052903819517E-01  9.1823453197379E-01
    68  6.7000000000000E-01  8.2798222815306E-01  9.6451251312947E-01
    69  6.8000000000000E-01  7.8510831876057E-01  1.0098089275007E+00
    70  6.9000000000000E-01  7.4201661014387E-01  1.0539744296633E+00
    71  7.0000000000000E-01  6.9881552285147E-01  1.0968632719708E+00
    72  7.1000000000000E-01  6.5561220788668E-01  1.1383340875529E+00
    73  7.2000000000000E-01  6.1251216236884E-01  1.1782506534658E+00
    74  7.3000000000000E-01  5.6961885287142E-01  1.2164826285070E+00
    75  7.4000000000000E-01  5.2703334844846E-01  1.2529062603500E+00
    76  7.5000000000000E-01  4.8485396531182E-01  1.2874050568366E+00
    77  7.6000000000000E-01  4.4317592506051E-01  1.3198704164852E+00
    78  7.7000000000000E-01  4.0209102829016E-01  1.3502022135252E+00
    79  7.8000000000000E-01  3.6168734532768E-01  1.3783093330508E+00
    80  7.9000000000000E-01  3.2204892574298E-01  1.4041101521976E+00
    81  8.0000000000000E-01  2.8325552818809E-01  1.4275329635753E+00
    82  8.1000000000000E-01  2.4538237200493E-01  1.4485163375463E+00
    83  8.2000000000000E-01  2.0849991192770E-01  1.4670094203014E+00
    84  8.3000000000000E-01  1.7267363708534E-01  1.4829721650634E+00
    85  8.4000000000000E-01  1.3796389538475E-01  1.4963754941346E+00
    86  8.5000000000000E-01  1.0442574422866E-01  1.5072013898867E+00
    87  8.6000000000000E-01  7.2108828392998E-02  1.5154429131799E+00
    88  8.7000000000000E-01  4.1057285759296E-02  1.5211041480757E+00
    89  8.8000000000000E-01  1.1309681469401E-02  1.5242000720777E+00
    90  8.9000000000000E-01 -1.7101029057175E-02  1.5247563514920E+00
    91  9.0000000000000E-01 -4.4147507926896E-02  1.5228090618421E+00
    92  9.1000000000000E-01 -6.9808013200960E-02  1.5184043335944E+00
    93  9.2000000000000E-01 -9.4066347869196E-02  1.5115979237529E+00
    94  9.3000000000000E-01 -1.1691177940001E-01  1.5024547141615E+00
    95  9.4000000000000E-01 -1.3833893000245E-01  1.4910481376064E+00
    96  9.5000000000000E-01 -1.5834763783524E-01  1.4774595330392E+00
    97  9.6000000000000E-01 -1.7694278949017E-01  1.4617774314429E+00
    98  9.7000000000000E-01 -1.9413412416246E-01  1.4440967740405E+00
    99  9.8000000000000E-01 -2.0993600999946E-01  1.4245180646904E+00
   100  9.9000000000000E-01 -2.2436719319038E-01  1.4031464584391E+00
   101  1.0000000000000E+00 -2.3745052042467E-01  1.3800907882954E+00
   102  1.0100000000000E+00 -2.4921263540407E-01  1.3554625323659E+00
   103  1.0200000000000E+00 -2.5968365014536E-01  1.3293747235410E+00
   104  1.0300000000000E+00 -2.6889679185579E-01  1.3019408039528E+00
   105  1.0400000000000E+00 -2.7688802620312E-01  1.2732734264389E+00
   106  1.0500000000000E+00 -2.8369565783667E-01  1.2434832052425E+00
   107  1.0600000000000E+00 -2.8935990904586E-01  1.2126774181672E+00
   108  1.0700000000000E+00 -2.9392247746837E-01  1.1809586623750E+00
   109  1.0800000000000E+00 -2.9742607378296E-01  1.1484234659882E+00
   110  1.0900000000000E+00 -2.9991394018427E-01  1.1151608562924E+00
   111  1.1000000000000E+00 -3.0142935197443E-01  1.0812508982517E+00
   112  1.1100000000000E+00 -3.0201514268987E-01  1.0467635587936E+00
   113  1.1200000000000E+00 -3.0171383424628E-01  1.0117627546928E+00
   114  1.1300000000000E+00 -3.0056810555106E-01  9.7631202803105E-01
   115  1.1400000000000E+00 -2.9862079117529E-01  9.4047512794920E-01
   116  1.1500000000000E+00 -2.9591481567089E-01  9.0431594054546E-01
   117  1.1600000000000E+00 -2.9249313100751E-01  8.6789842469950E-01
   118  1.1700000000000E+00 -2.8839865722194E-01  8.3128655755666E-01
   119  1.1800000000000E+00 -2.8367422569085E-01  7.9454428613618E-01
   120  1.1900000000000E+00 -2.7836252450055E-01  7.5773548251521E-01
   121  1.2000000000000E+00 -2.7250604538387E-01  7.2092390017139E-01
   122  1.2100000000000E+00 -2.6614703169068E-01  6.8417312912548E-01
   123  1.2200000000000E+00 -2.5932742688848E-01  6.4754654775821E-01
   124  1.2300000000000E+00 -2.5208882308842E-01  6.1110726915010E-01
   125  1.2400000000000E+00 -2.4447240917647E-01  5.7491808028958E-01
   126  1.2500000000000E+00 -2.3651891806828E-01  5.3904137203570E-01
   127  1.2600000000000E+00 -2.2826857281881E-01  5.0353905894601E-01
   128  1.2700000000000E+00 -2.1976103120633E-01  4.6847248726676E-01
   129  1.2800000000000E+00 -2.1103532857792E-01  4.3390233028430E-01
   130  1.2900000000000E+00 -2.0212981878112E-01  3.9988847031165E-01
   131  1.3000000000000E+00 -1.9308211306983E-01  3.6648986681442E-01
   132  1.3100000000000E+00 -1.8392901695308E-01  3.3376441050427E-01
   133  1.3200000000000E+00 -1.7470646503179E-01  3.0176876352123E-01
   134  1.3300000000000E+00 -1.6544945394176E-01  2.7055818609584E-01
   135  1.3400000000000E+00 -1.5619197358063E-01  2.4018635028859E-01
   136  1.3500000000000E+00 -1.4696693696374E-01  2.1070514216951E-01
   137  1.3600000000000E+00 -1.3780610875328E-01  1.8216445213821E-01
   138  1.3700000000000E+00 -1.2874003358681E-01  1.5461195860524E-01
   139  1.3800000000000E+00 -1.1979796353926E-01  1.2809290087872E-01
   140  1.3900000000000E+00 -1.1100778640546E-01  1.0264984921488E-01
   141  1.4000000000000E+00 -1.0239595461602E-01  7.8322470215653E-02
   142  1.4100000000000E+00 -9.3987415736215E-02  5.5147291586254E-02
   143  1.4200000000000E+00 -8.5805545119689E-02  3.3157468267548E-02
   144  1.4300000000000E+00 -7.7872081438160E-02  1.2382552694227E-02
   145  1.4400000000000E+00 -7.0207065787148E-02 -7.1517281910339E-03
   146  1.4500000000000E+00 -6.2828785101503E-02 -2.5423686371398E-02
   147  1.4600000000000E+00 -5.5753720616432E-02 -4.2415873822336E-02
   148  1.4700000000000E+00 -4.8996502085781E-02 -5.8115268486015E-02
   149  1.4800000000000E+00 -4.2569868481329E-02 -7.2513442339166E-02
   150  1.4900000000000E+00 -3.6484635847786E-02 -8.5606708929050E-02
   151  1.5000000000000E+00 -3.0749672966041E-02 -9.7396247803290E-02
   152  1.5100000000000E+00 -2.5371885427470E-02 -1.0788820343129E-01
   153  1.5200000000000E+00 -2.0356208680581E-02 -1.1709375634107E-01
   154  1.5300000000000E+00 -1.5705610528257E-02 -1.2502916450272E-01
   155  1.5400000000000E+00 -1.1421103513200E-02 -1.3171577309850E-01
   156  1.5500000000000E+00 -7.5017675294046E-03 -1.3717999119072E-01
   157  1.5600000000000E+00 -3.9447829313143E-03 -1.4145323401284E-01
   158  1.5700000000000E+00 -7.4547431076291E-04 -1.4457182997771E-01
   159  1.5800000000000E+00  2.1026349622628E-03 -1.4657689174186E-01
   160  1.5900000000000E+00  4.6077574564317E-03 -1.4751415109787E-01
   161  1.6000000000000E+00  6.7797657595183E-03 -1.4743375775548E-01
   162  1.6100000000000E+00  8.6301061277625E-03 -1.4639004242484E-01
   163  1.6200000000000E+00  1.0171702025430E-02 -1.4444124504111E-01
   164  1.6300000000000E+00  1.1418847958438E-02 -1.4164920925243E-01
   165  1.6400000000000E+00  1.2387094116837E-02 -1.3807904470122E-01
   166  1.6500000000000E+00  1.3093122430854E-02 -1.3379875894921E-01
   167  1.6600000000000E+00  1.3554614742642E-02 -1.2887886125284E-01
   168  1.6700000000000E+00  1.3790113880917E-02 -1.2339194070362E-01
   169  1.6800000000000E+00  1.3818878500133E-02 -1.1741222151712E-01
   170  1.6900000000000E+00  1.3660732639037E-02 -1.1101509860591E-01
   171  1.7000000000000E+00  1.3335911001171E-02 -1.0427665673940E-01
   172  1.7100000000000E+00  1.2864901026285E-02 -9.7273176845537E-02
   173  1.7200000000000E+00  1.2268282869212E-02 -9.0080633189241E-02
   174  1.7300000000000E+00  1.1566568505056E-02 -8.2774185569301E-02
   175  1.7400000000000E+00  1.0780040905351E-02 -7.5427669558204E-02
   176  1.7500000000000E+00  9.9285949792697E-03 -6.8113090861796E-02
   177  1.7600000000000E+00  9.0315809786497E-03 -6.0900125835974E-02
   178  1.7700000000000E+00  8.1076517386818E-03 -5.3855632951053E-02
   179  1.7800000000000E+00  7.1746158439726E-03 -4.7043182968833E-02
   180  1.7900000000000E+00  6.2492911897914E-03 -4.0522584405383E-02
   181  1.8000000000000E+00  5.3473858469894E-03 -3.4349512963849E-02
   182  1.8100000000000E+00  4.4833541973011E-03 -2.8575036729001E-02
   183  1.8200000000000E+00  3.6698801887308E-03 -2.3243581945233E-02
   184  1.8300000000000E+00  2.9177017641100E-03 -1.8392256971680E-02
   185  1.8400000000000E+00  2.2373842182415E-03 -1.4058268897381E-02
   186  1.8500000000000E+00  1.6378227924579E-03 -1.0272918950213E-02
   187  1.8600000000000E+00  1.1260951370882E-03 -7.0610452094439E-03
   188  1.8700000000000E+00  7.0742000164822E-04 -4.4408910175935E-03
   189  1.8800000000000E+00  3.8525555367930E-04 -2.4248501768538E-03
   190  1.8900000000000E+00  1.5991218949194E-04 -1.0106095050422E-03
   191  1.9000000000000E+00  3.4968301974425E-05 -2.2228981018816E-04
   192  1.9100000000000E+00 -1.7813819192304E-06  1.1375354132465E-05
   193  1.9200000000000E+00  2.1411981094271E-08 -1.3637576453736E-07
   194  1.93  0. -0.
   195  1.94 -0.  0.
   196  1.95 -0.  0.
   197  1.96  0.  0.
   198  1.97  0.  0.
   199  1.98  0.  0.
   200  1.99  0.  0.
   201  2.00  0.  0.
   202  2.01  0.  0.
   203  2.02  0.  0.
   204  2.03  0.  0.
   205  2.04  0.  0.
   206  2.05  0.  0.
   207  2.06  0.  0.
   208  2.07  0.  0.
   209  2.08  0.  0.
   210  2.09  0.  0.
   211  2.10  0.  0.
   212  2.11  0.  0.
   213  2.12  0.  0.
   214  2.13  0.  0.
   215  2.14  0.  0.
   216  2.15  0.  0.
   217  2.16  0.  0.
   218  2.17  0.  0.
   219  2.18  0.  0.
   220  2.19  0.  0.
   221  2.20  0.  0.
   222  2.21  0.  0.
   223  2.22  0.  0.
   224  2.23  0.  0.
   225  2.24  0.  0.
   226  2.25  0.  0.
   227  2.26  0.  0.
   228  2.27  0.  0.
   229  2.28  0.  0.
   230  2.29  0.  0.
   231  2.30  0.  0.
   232  2.31  0.  0.
   233  2.32  0.  0.
   234  2.33  0.  0.
   235  2.34  0.  0.
   236  2.35  0.  0.
   237  2.36  0.  0.
   238  2.37  0.  0.
   239  2.38  0.  0.
   240  2.39  0.  0.
   241  2.40  0.  0.
   242  2.41  0.  0.
   243  2.42  0.  0.
   244  2.43  0.  0.
   245  2.44  0.  0.
   246  2.45  0.  0.
   247  2.46  0.  0.
   248  2.47  0.  0.
   249  2.48  0.  0.
   250  2.49  0.  0.
   251  2.50  0.  0.
   252  2.51  0.  0.
   253  2.52  0.  0.
   254  2.53  0.  0.
   255  2.54  0.  0.
   256  2.55  0.  0.
   257  2.56  0.  0.
   258  2.57  0.  0.
   259  2.58  0.  0.
   260  2.59  0.  0.
   261  2.60  0.  0.
   262  2.61  0.  0.
   263  2.62  0.  0.
   264  2.63  0.  0.
   265  2.64  0.  0.
   266  2.65  0.  0.
   267  2.66  0.  0.
   268  2.67  0.  0.
   269  2.68  0.  0.
   270  2.69  0.  0.
   271  2.70  0.  0.
   272  2.71  0.  0.
   273  2.72  0.  0.
   274  2.73  0.  0.
   275  2.74  0.  0.
   276  2.75  0.  0.
   277  2.76  0.  0.
   278  2.77  0.  0.
   279  2.78  0.  0.
   280  2.79  0.  0.
   281  2.80  0.  0.
   282  2.81  0.  0.
   283  2.82  0.  0.
   284  2.83  0.  0.
   285  2.84  0.  0.
   286  2.85  0.  0.
   287  2.86  0.  0.
   288  2.87  0.  0.
   289  2.88  0.  0.
   290  2.89  0.  0.
   291  2.90  0.  0.
   292  2.91  0.  0.
   293  2.92  0.  0.
   294  2.93  0.  0.
   295  2.94  0.  0.
   296  2.95  0.  0.
   297  2.96  0.  0.
   298  2.97  0.  0.
   299  2.98  0.  0.
   300  2.99  0.  0.
   301  3.00  0.  0.
   302  3.01  0.  0.
   303  3.02  0.  0.
   304  3.03  0.  0.
   305  3.04  0.  0.
   306  3.05  0.  0.
   307  3.06  0.  0.
   308  3.07  0.  0.
   309  3.08  0.  0.
   310  3.09  0.  0.
   311  3.10  0.  0.
   312  3.11  0.  0.
   313  3.12  0.  0.
   314  3.13  0.  0.
   315  3.14  0.  0.
   316  3.15  0.  0.
   317  3.16  0.  0.
   318  3.17  0.  0.
   319  3.18  0.  0.
   320  3.19  0.  0.
   321  3.20  0.  0.
   322  3.21  0.  0.
   323  3.22  0.  0.
   324  3.23  0.  0.
   325  3.24  0.  0.
   326  3.25  0.  0.
   327  3.26  0.  0.
   328  3.27  0.  0.
   329  3.28  0.  0.
   330  3.29  0.  0.
   331  3.30  0.  0.
   332  3.31  0.  0.
   333  3.32  0.  0.
   334  3.33  0.  0.
   335  3.34  0.  0.
   336  3.35  0.  0.
   337  3.36  0.  0.
   338  3.37  0.  0.
   339  3.38  0.  0.
   340  3.39  0.  0.
   341  3.40  0.  0.
   342  3.41  0.  0.
   343  3.42  0.  0.
   344  3.43  0.  0.
   345  3.44  0.  0.
   346  3.45  0.  0.
   347  3.46  0.  0.
   348  3.47  0.  0.
   349  3.48  0.  0.
   350  3.49  0.  0.
   351  3.50  0.  0.
   352  3.51  0.  0.
   353  3.52  0.  0.
   354  3.53  0.  0.
   355  3.54  0.  0.
   356  3.55  0.  0.
   357  3.56  0.  0.
   358  3.57  0.  0.
   359  3.58  0.  0.
   360  3.59  0.  0.
   361  3.60  0.  0.
   362  3.61  0.  0.
   363  3.62  0.  0.
   364  3.63  0.  0.
   365  3.64  0.  0.
   366  3.65  0.  0.
   367  3.66  0.  0.
   368  3.67  0.  0.
   369  3.68  0.  0.
   370  3.69  0.  0.
   371  3.70  0.  0.
   372  3.71  0.  0.
   373  3.72  0.  0.
   374  3.73  0.  0.
   375  3.74  0.  0.
   376  3.75  0.  0.
   377  3.76  0.  0.
   378  3.77  0.  0.
   379  3.78  0.  0.
   380  3.79  0.  0.
   381  3.80  0.  0.
   382  3.81  0.  0.
   383  3.82  0.  0.
   384  3.83  0.  0.
   385  3.84  0.  0.
   386  3.85  0.  0.
   387  3.86  0.  0.
   388  3.87  0.  0.
   389  3.88  0.  0.
   390  3.89  0.  0.
   391  3.90  0.  0.
   392  3.91  0.  0.
   393  3.92  0.  0.
   394  3.93  0.  0.
   395  3.94  0.  0.
   396  3.95  0.  0.
   397  3.96  0.  0.
   398  3.97  0.  0.
   399  3.98  0.  0.
   400  3.99  0.  0.
   401  4.00  0.  0.
   402  4.01  0.  0.
   403  4.02  0.  0.
   404  4.03  0.  0.
   405  4.04  0.  0.
   406  4.05  0.  0.
   407  4.06  0.  0.
   408  4.07  0.  0.
   409  4.08  0.  0.
   410  4.09  0.  0.
   411  4.10  0.  0.
   412  4.11  0.  0.
   413  4.12  0.  0.
   414  4.13  0.  0.
   415  4.14  0.  0.
   416  4.15  0.  0.
   417  4.16  0.  0.
   418  4.17  0.  0.
   419  4.18  0.  0.
   420  4.19  0.  0.
   421  4.20  0.  0.
   422  4.21  0.  0.
   423  4.22  0.  0.
   424  4.23  0.  0.
   425  4.24  0.  0.
   426  4.25  0.  0.
   427  4.26  0.  0.
   428  4.27  0.  0.
   429  4.28  0.  0.
   430  4.29  0.  0.
   431  4.30  0.  0.
   432  4.31  0.  0.
   433  4.32  0.  0.
   434  4.33  0.  0.
   435  4.34  0.  0.
   436  4.35  0.  0.
   437  4.36  0.  0.
   438  4.37  0.  0.
   439  4.38  0.  0.
   440  4.39  0.  0.
   441  4.40  0.  0.
   442  4.41  0.  0.
   443  4.42  0.  0.
   444  4.43  0.  0.
   445  4.44  0.  0.
   446  4.45  0.  0.
   447  4.46  0.  0.
   448  4.47  0.  0.
   449  4.48  0.  0.
   450  4.49  0.  0.
   451  4.50  0.  0.
   452  4.51  0.  0.
   453  4.52  0.  0.
   454  4.53  0.  0.
   455  4.54  0.  0.
   456  4.55  0.  0.
   457  4.56  0.  0.
   458  4.57  0.  0.
   459  4.58  0.  0.
   460  4.59  0.  0.
   461  4.60  0.  0.
   462  4.61  0.  0.
   463  4.62  0.  0.
   464  4.63  0.  0.
   465  4.64  0.  0.
   466  4.65  0.  0.
   467  4.66  0.  0.
   468  4.67  0.  0.
   469  4.68  0.  0.
   470  4.69  0.  0.
   471  4.70  0.  0.
   472  4.71  0.  0.
   473  4.72  0.  0.
   474  4.73  0.  0.
   475  4.74  0.  0.
   476  4.75  0.  0.
   477  4.76  0.  0.
   478  4.77  0.  0.
   479  4.78  0.  0.
   480  4.79  0.  0.
   481  4.80  0.  0.
   482  4.81  0.  0.
   483  4.82  0.  0.
   484  4.83  0.  0.
   485  4.84  0.  0.
   486  4.85  0.  0.
   487  4.86  0.  0.
   488  4.87  0.  0.
   489  4.88  0.  0.
   490  4.89  0.  0.
   491  4.90  0.  0.
   492  4.91  0.  0.
   493  4.92  0.  0.
   494  4.93  0.  0.
   495  4.94  0.  0.
   496  4.95  0.  0.
   497  4.96  0.  0.
   498  4.97  0.  0.
   499  4.98  0.  0.
   500  4.99  0.  0.
   501  5.00  0.  0.
   502  5.01  0.  0.
   503  5.02  0.  0.
   504  5.03  0.  0.
   505  5.04  0.  0.
   506  5.05  0.  0.
   507  5.06  0.  0.
   508  5.07  0.  0.
   509  5.08  0.  0.
   510  5.09  0.  0.
   511  5.10  0.  0.
   512  5.11  0.  0.
   513  5.12  0.  0.
   514  5.13  0.  0.
   515  5.14  0.  0.
   516  5.15  0.  0.
   517  5.16  0.  0.
   518  5.17  0.  0.
   519  5.18  0.  0.
   520  5.19  0.  0.
   521  5.20  0.  0.
   522  5.21  0.  0.
   523  5.22  0.  0.
   524  5.23  0.  0.
   525  5.24  0.  0.
   526  5.25  0.  0.
   527  5.26  0.  0.
   528  5.27  0.  0.
   529  5.28  0.  0.
   530  5.29  0.  0.
   531  5.30  0.  0.
   532  5.31  0.  0.
   533  5.32  0.  0.
   534  5.33  0.  0.
   535  5.34  0.  0.
   536  5.35  0.  0.
   537  5.36  0.  0.
   538  5.37  0.  0.
   539  5.38  0.  0.
   540  5.39  0.  0.
   541  5.40  0.  0.
   542  5.41  0.  0.
   543  5.42  0.  0.
   544  5.43  0.  0.
   545  5.44  0.  0.
   546  5.45  0.  0.
   547  5.46  0.  0.
   548  5.47  0.  0.
   549  5.48  0.  0.
   550  5.49  0.  0.
   551  5.50  0.  0.
   552  5.51  0.  0.
   553  5.52  0.  0.
   554  5.53  0.  0.
   555  5.54  0.  0.
   556  5.55  0.  0.
   557  5.56  0.  0.
   558  5.57  0.  0.
   559  5.58  0.  0.
   560  5.59  0.  0.
   561  5.60  0.  0.
   562  5.61  0.  0.
   563  5.62  0.  0.
   564  5.63  0.  0.
   565  5.64  0.  0.
   566  5.65  0.  0.
   567  5.66  0.  0.
   568  5.67  0.  0.
   569  5.68  0.  0.
   570  5.69  0.  0.
   571  5.70  0.  0.
   572  5.71  0.  0.
   573  5.72  0.  0.
   574  5.73  0.  0.
   575  5.74  0.  0.
   576  5.75  0.  0.
   577  5.76  0.  0.
   578  5.77  0.  0.
   579  5.78  0.  0.
   580  5.79  0.  0.
   581  5.80  0.  0.
   582  5.81  0.  0.
   583  5.82  0.  0.
   584  5.83  0.  0.
   585  5.84  0.  0.
   586  5.85  0.  0.
   587  5.86  0.  0.
   588  5.87  0.  0.
   589  5.88  0.  0.
   590  5.89  0.  0.
   591  5.90  0.  0.
   592  5.91  0.  0.
   593  5.92  0.  0.
   594  5.93  0.  0.
   595  5.94  0.  0.
   596  5.95  0.  0.
   597  5.96  0.  0.
   598  5.97  0.  0.
   599  5.98  0.  0.
   600  5.99  0.  0.
   1                         8.7658263661995E+00  1.7495465155157E+00
     1  0.0000000000000E+00  4.0824983671417E-10 -5.5444959734530E-10
     2  1.0000000000000E-02  1.9144894120336E-03 -1.0495356306733E-03
     3  2.0000000000000E-02  7.6490625324999E-03 -4.1897073134143E-03
     4  3.0000000000000E-02  1.7177076546406E-02 -9.3952604919507E-03
     5  4.0000000000000E-02  3.0454268322227E-02 -1.6624274187554E-02
     6  5.0000000000000E-02  4.7418966008234E-02 -2.5818414908340E-02
     7  6.0000000000000E-02  6.7992383783553E-02 -3.6903290101414E-02
     8  7.0000000000000E-02  9.2078998289336E-02 -4.9788899140416E-02
     9  8.0000000000000E-02  1.1956700485720E-01 -6.4370179286585E-02
    10  9.0000000000000E-02  1.5032885125356E-01 -8.0527643521121E-02
    11  1.0000000000000E-01  1.8422184627161E-01 -9.8128106623558E-02
    12  1.1000000000000E-01  2.2108884013000E-01 -1.1702549536787E-01
    13  1.2000000000000E-01  2.6075897327939E-01 -1.3706173822761E-01
    14  1.3000000000000E-01  3.0304848987876E-01 -1.5806772952692E-01
    15  1.4000000000000E-01  3.4776161188238E-01 -1.7986436254728E-01
    16  1.5000000000000E-01  3.9469146937865E-01 -2.0226362570378E-01
    17  1.6000000000000E-01  4.4362108254501E-01 -2.2506975554079E-01
    18  1.7000000000000E-01  4.9432439032903E-01 -2.4808043996749E-01
    19  1.8000000000000E-01  5.4656732073794E-01 -2.7108806486142E-01
    20  1.9000000000000E-01  6.0010889741627E-01 -2.9388099691269E-01
    21  2.0000000000000E-01  6.5470237701656E-01 -3.1624489536683E-01
    22  2.1000000000000E-01  7.1009641172113E-01 -3.3796404514864E-01
    23  2.2000000000000E-01  7.6603623115509E-01 -3.5882270371693E-01
    24  2.3000000000000E-01  8.2226483784192E-01 -3.7860645390858E-01
    25  2.4000000000000E-01  8.7852421029451E-01 -3.9710355498240E-01
    26  2.5000000000000E-01  9.3455650780559E-01 -4.1410628406834E-01
    27  2.6000000000000E-01  9.9010527100310E-01 -4.2941226026545E-01
    28  2.7000000000000E-01  1.0449166122674E+00 -4.4282574371340E-01
    29  2.8000000000000E-01  1.0987403901695E+00 -4.5415890208541E-01
    30  2.9000000000000E-01  1.1513313621785E+00 -4.6323303711622E-01
    31  3.0000000000000E-01  1.2024503100100E+00 -4.6987976398483E-01
    32  3.1000000000000E-01  1.2518651321308E+00 -4.7394213661792E-01
    33  3.2000000000000E-01  1.2993518981164E+00 -4.7527571226446E-01
    34  3.3000000000000E-01  1.3446958597551E+00 -4.7374954901405E-01
    35  3.4000000000000E-01  1.3876924140247E+00 -4.6924713028780E-01
    36  3.5000000000000E-01  1.4281480133175E+00 -4.6166721072150E-01
    37  3.6000000000000E-01  1.4658810185641E+00 -4.5092457828209E-01
    38  3.7000000000000E-01  1.5007224912061E+00 -4.3695072790896E-01
    39  3.8000000000000E-01  1.5325169202803E+00 -4.1969444244903E-01
    40  3.9000000000000E-01  1.5611228812139E+00 -3.9912227715565E-01
    41  4.0000000000000E-01  1.5864136232821E+00 -3.7521894454428E-01
    42  4.1000000000000E-01  1.6082775830431E+00 -3.4798759693917E-01
    43  4.2000000000000E-01  1.6266188214463E+00 -3.1745000460231E-01
    44  4.3000000000000E-01  1.6413573826976E+00 -2.8364662790638E-01
    45  4.4000000000000E-01  1.6524295733653E+00 -2.4663658259304E-01
    46  4.5000000000000E-01  1.6597881606141E+00 -2.0649749774461E-01
    47  4.6000000000000E-01  1.6634024888660E+00 -1.6332526668814E-01
    48  4.7000000000000E-01  1.6632585145981E+00 -1.1723369164202E-01
    49  4.8000000000000E-01  1.6593587594018E+00 -6.8354023503681E-02
    50  4.9000000000000E-01  1.6517221818400E+00 -1.6834398761827E-02
    51  5.0000000000000E-01  1.6403839690447E+00  3.7160823909874E-02
    52  5.1000000000000E-01  1.6253952494051E+00  9.3451824255114E-02
    53  5.2000000000000E-01  1.6068227280864E+00  1.5184417456226E-01
    54  5.3000000000000E-01  1.5847482475090E+00  2.1212978311205E-01
    55  5.4000000000000E-01  1.5592682752924E+00  2.7408792222831E-01
    56  5.5000000000000E-01  1.5304933225269E+00  3.3748633572301E-01
    57  5.6000000000000E-01  1.4985472955871E+00  4.0208242006050E-01
    58  5.7000000000000E-01  1.4635667850294E+00  4.6762447312642E-01
    59  5.8000000000000E-01  1.4257002954274E+00  5.3385300407581E-01
    60  5.9000000000000E-01  1.3851074202950E+00  6.0050209735552E-01
    61  6.0000000000000E-01  1.3419579665177E+00  6.6730082364885E-01
    62  6.1000000000000E-01  1.2964310329628E+00  7.3397469017805E-01
    63  6.2000000000000E-01  1.2487140481685E+00  8.0024712252304E-01
    64  6.3000000000000E-01  1.1990017722138E+00  8.6584096987525E-01
    65  6.4000000000000E-01  1.1474952680510E+00  9.3048002544306E-01
    66  6.5000000000000E-01  1.0944008477362E+00  9.9389055356291E-01
    67  6.6000000000000E-01  1.0399289991193E+00  1.0558028149455E+00
    68  6.7000000000000E-01  9.8429329865695E-01  1.1159525814035E+00
    69  6.8000000000000E-01  9.2770931608653E-01  1.1740826313626E+00
    70  6.9000000000000E-01  8.7039351674428E-01  1.2299442174538E+00
    71  7.0000000000000E-01  8.1256216733418E-01  1.2832984975204E+00
    72  7.1000000000000E-01  7.5443025094507E-01  1.3339179204495E+00
    73  7.2000000000000E-01  6.9621039708224E-01  1.3815875583482E+00
    74  7.3000000000000E-01  6.3811183242010E-01  1.4261063767399E+00
    75  7.4000000000000E-01  5.8033935789803E-01  1.4672884346412E+00
    76  7.5000000000000E-01  5.2309235767226E-01  1.5049640066062E+00
    77  7.6000000000000E-01  4.6656384530259E-01  1.5389806190799E+00
    78  7.7000000000000E-01  4.1093955239631E-01  1.5692039936965E+00
    79  7.8000000000000E-01  3.5639706475212E-01  1.5955188904780E+00
    80  7.9000000000000E-01  3.0310501084658E-01  1.6178298442392E+00
    81  8.0000000000000E-01  2.5122230728545E-01  1.6360617878840E+00
    82  8.1000000000000E-01  2.0089746560280E-01  1.6501605566826E+00
    83  8.2000000000000E-01  1.5226796453482E-01  1.6600932680415E+00
    84  8.3000000000000E-01  1.0545969162232E-01  1.6658485717298E+00
    85  8.4000000000000E-01  6.0586457709433E-02  1.6674367659877E+00
    86  8.5000000000000E-01  1.7749587606245E-02  1.6648897754254E+00
    87  8.6000000000000E-01 -2.2962410128238E-02  1.6582609871167E+00
    88  8.7000000000000E-01 -6.1474091647047E-02  1.6476249417957E+00
    89  8.8000000000000E-01 -9.7723242213237E-02  1.6330768775828E+00
    90  8.9000000000000E-01 -1.3166095456350E-01  1.6147321241829E+00
    91  9.0000000000000E-01 -1.6325161960585E-01  1.5927253460283E+00
    92  9.1000000000000E-01 -1.9247282816317E-01  1.5672096333604E+00
    93  9.2000000000000E-01 -2.1931518281893E-01  1.5383554407718E+00
    94  9.3000000000000E-01 -2.4378201926576E-01  1.5063493732490E+00
    95  9.4000000000000E-01 -2.6588903690030E-01  1.4713928202737E+00
    96  9.5000000000000E-01 -2.8566383874710E-01  1.4337004390460E+00
    97  9.6000000000000E-01 -3.0314538112855E-01  1.3934984883889E+00
    98  9.7000000000000E-01 -3.1838333382631E-01  1.3510230153822E+00
    99  9.8000000000000E-01 -3.3143735179998E-01  1.3065178972387E+00
   100  9.9000000000000E-01 -3.4237625984031E-01  1.2602327413953E+00
   101  1.0000000000000E+00 -3.5127715183522E-01  1.2124206472260E+00
   102  1.0100000000000E+00 -3.5822440661695E-01  1.1633358332011E+00
   103  1.0200000000000E+00 -3.6330862263577E-01  1.1132311337180E+00
   104  1.0300000000000E+00 -3.6662547396915E-01  1.0623553701999E+00
   105  1.0400000000000E+00 -3.6827449042512E-01  1.0109506014156E+00
   106  1.0500000000000E+00 -3.6835776473233E-01  9.5924925830049E-01