Pd    ONCVPSP-4.0.1  r_core=   1.97027   1.90080   2.20743
     46.0000     18.0000      210704    zatom,zion,pspd
     8      11   2     4   600     0    pspcod,pspxc,lmax,lloc,mmax,r2well
  5.99000000  7.00000000  0.00000000    rchrg fchrg qchrg
     2     2     2     0     0    nproj
     1     1           extension_switch
   0                         3.0186421067409E+00 -4.2033358522696E-01
     1  0.0000000000000E+00 -3.8894332199391E-11 -4.4335174420596E-11
     2  1.0000000000000E-02  6.3922828524812E-02  1.3495301229019E-02
     3  2.0000000000000E-02  1.2771787152259E-01  2.6990430246399E-02
     4  3.0000000000000E-02  1.9125766582739E-01  4.0485249739021E-02
     5  4.0000000000000E-02  2.5441539175281E-01  5.3979691464753E-02
     6  5.0000000000000E-02  3.1706519173547E-01  6.7473788984318E-02
     7  6.0000000000000E-02  3.7908248529074E-01  8.0967708260866E-02
     8  7.0000000000000E-02  4.4034427909788E-01  9.4461775469398E-02
     9  8.0000000000000E-02  5.0072947107040E-01  1.0795650140248E-01
    10  9.0000000000000E-02  5.6011914731531E-01  1.2145260191287E-01
    11  1.0000000000000E-01  6.1839687094030E-01  1.3495101389669E-01
    12  1.1000000000000E-01  6.7544896173144E-01  1.4845290639210E-01
    13  1.2000000000000E-01  7.3116476579360E-01  1.6195968644635E-01
    14  1.3000000000000E-01  7.8543691432113E-01  1.7547299948807E-01
    15  1.4000000000000E-01  8.3816157074662E-01  1.8899472403010E-01
    16  1.5000000000000E-01  8.8923866559965E-01  2.0252696061948E-01
    17  1.6000000000000E-01  9.3857211849354E-01  2.1607201504482E-01
    18  1.7000000000000E-01  9.8607004674663E-01  2.2963237590454E-01
    19  1.8000000000000E-01  1.0316449602331E+00  2.4321068673240E-01
    20  1.9000000000000E-01  1.0752139421460E+00  2.5680971296629E-01
    21  2.0000000000000E-01  1.1166988154426E+00  2.7043230413291E-01
    22  2.1000000000000E-01  1.1560262948239E+00  2.8408135170125E-01
    23  2.2000000000000E-01  1.1931281241821E+00  2.9775974313269E-01
    24  2.3000000000000E-01  1.2279411995252E+00  3.1147031272191E-01
    25  2.4000000000000E-01  1.2604076774554E+00  3.2521578988111E-01
    26  2.5000000000000E-01  1.2904750693468E+00  3.3899874556822E-01
    27  2.6000000000000E-01  1.3180963214206E+00  3.5282153759781E-01
    28  2.7000000000000E-01  1.3432298809694E+00  3.6668625560076E-01
    29  2.8000000000000E-01  1.3658397490247E+00  3.8059466641346E-01
    30  2.9000000000000E-01  1.3858955197933E+00  3.9454816068186E-01
    31  3.0000000000000E-01  1.4033724072218E+00  4.0854770145671E-01
    32  3.1000000000000E-01  1.4182512590595E+00  4.2259377553673E-01
    33  3.2000000000000E-01  1.4305185588092E+00  4.3668634828462E-01
    34  3.3000000000000E-01  1.4401664159519E+00  4.5082482259763E-01
    35  3.4000000000000E-01  1.4471925448340E+00  4.6500800266159E-01
    36  3.5000000000000E-01  1.4516002325916E+00  4.7923406305315E-01
    37  3.6000000000000E-01  1.4533982964721E+00  4.9350052368323E-01
    38  3.7000000000000E-01  1.4526010308912E+00  5.0780423099421E-01
    39  3.8000000000000E-01  1.4492281445380E+00  5.2214134573627E-01
    40  3.9000000000000E-01  1.4433046878101E+00  5.3650733755613E-01
    41  4.0000000000000E-01  1.4348609708292E+00  5.5089698653432E-01
    42  4.1000000000000E-01  1.4239324722533E+00  5.6530439170828E-01
    43  4.2000000000000E-01  1.4105597390649E+00  5.7972298651762E-01
    44  4.3000000000000E-01  1.3947882774822E+00  5.9414556100780E-01
    45  4.4000000000000E-01  1.3766684351051E+00  6.0856429052999E-01
    46  4.5000000000000E-01  1.3562552743757E+00  6.2297077057956E-01
    47  4.6000000000000E-01  1.3336084374074E+00  6.3735605732540E-01
    48  4.7000000000000E-01  1.3087920022095E+00  6.5171071329760E-01
    49  4.8000000000000E-01  1.2818743303163E+00  6.6602485762452E-01
    50  4.9000000000000E-01  1.2529279058168E+00  6.8028822014179E-01
    51  5.0000000000000E-01  1.2220291657719E+00  6.9449019863726E-01
    52  5.1000000000000E-01  1.1892583220082E+00  7.0861991844835E-01
    53  5.2000000000000E-01  1.1546991742807E+00  7.2266629359151E-01
    54  5.3000000000000E-01  1.1184389148152E+00  7.3661808857971E-01
    55  5.4000000000000E-01  1.0805679242610E+00  7.5046398007174E-01
    56  5.5000000000000E-01  1.0411795591146E+00  7.6419261749869E-01
    57  5.6000000000000E-01  1.0003699307140E+00  7.7779268182672E-01
    58  5.7000000000000E-01  9.5823767594857E-01  7.9125294164227E-01
    59  5.8000000000000E-01  9.1488371987954E-01  8.0456230578519E-01
    60  5.9000000000000E-01  8.7041103052913E-01  8.1770987180657E-01
    61  6.0000000000000E-01  8.2492436615696E-01  8.3068496959092E-01
    62  6.1000000000000E-01  7.7853001541563E-01  8.4347719955541E-01
    63  6.2000000000000E-01  7.3133553085008E-01  8.5607646492148E-01
    64  6.3000000000000E-01  6.8344945628345E-01  8.6847299764549E-01
    65  6.4000000000000E-01  6.3498104871201E-01  8.8065737769256E-01
    66  6.5000000000000E-01  5.8603999541260E-01  8.9262054544182E-01
    67  6.6000000000000E-01  5.3673612704689E-01  9.0435380711887E-01
    68  6.7000000000000E-01  4.8717912762630E-01  9.1584883326153E-01
    69  6.8000000000000E-01  4.3747824227819E-01  9.2709765033612E-01
    70  6.9000000000000E-01  3.8774198382703E-01  9.3809262573222E-01
    71  7.0000000000000E-01  3.3807783927219E-01  9.4882644647144E-01
    72  7.1000000000000E-01  2.8859197730548E-01  9.5929209207030E-01
    73  7.2000000000000E-01  2.3938895806569E-01  9.6948280209526E-01
    74  7.3000000000000E-01  1.9057144637307E-01  9.7939203903939E-01
    75  7.4000000000000E-01  1.4223992972256E-01  9.8901344723264E-01
    76  7.5000000000000E-01  9.4492442340094E-02  9.9834080857060E-01
    77  7.6000000000000E-01  4.7424296620939E-02  1.0073679959080E+00
    78  7.7000000000000E-01  1.1278232711355E-03  1.0160889250127E+00
    79  7.8000000000000E-01 -4.4307878536329E-02  1.0244975060132E+00
    80  7.9000000000000E-01 -8.8797179701664E-02  1.0325875952931E+00
    81  8.0000000000000E-01 -1.3225814718113E-01  1.0403529487986E+00
    82  8.1000000000000E-01 -1.7461275620698E-01  1.0477871777152E+00
    83  8.2000000000000E-01 -2.1578708759995E-01  1.0548837074513E+00
    84  8.3000000000000E-01 -2.5571150910266E-01  1.0616357408329E+00
    85  8.4000000000000E-01 -2.9432083974759E-01  1.0680362263614E+00
    86  8.5000000000000E-01 -3.3155449636919E-01  1.0740778323277E+00
    87  8.6000000000000E-01 -3.6735662147634E-01  1.0797529274992E+00
    88  8.7000000000000E-01 -4.0167619181727E-01  1.0850535690082E+00
    89  8.8000000000000E-01 -4.3446710709292E-01  1.0899714979753E+00
    90  8.9000000000000E-01 -4.6568825840606E-01  1.0944981432933E+00
    91  9.0000000000000E-01 -4.9530357616994E-01  1.0986246338819E+00
    92  9.1000000000000E-01 -5.2328205734141E-01  1.1023418196025E+00
    93  9.2000000000000E-01 -5.4959777198684E-01  1.1056403008978E+00
    94  9.3000000000000E-01 -5.7422984933397E-01  1.1085104670915E+00
    95  9.4000000000000E-01 -5.9716244360701E-01  1.1109425431529E+00
    96  9.5000000000000E-01 -6.1838468008439E-01  1.1129266446033E+00
    97  9.6000000000000E-01 -6.3789058195703E-01  1.1144528401157E+00
    98  9.7000000000000E-01 -6.5567897869791E-01  1.1155112212347E+00
    99  9.8000000000000E-01 -6.7175339678021E-01  1.1160919785308E+00
   100  9.9000000000000E-01 -6.8612193369911E-01  1.1161854833949E+00
   101  1.0000000000000E+00 -6.9879711636101E-01  1.1157823745810E+00
   102  1.0100000000000E+00 -7.0979574500117E-01  1.1148736485174E+00
   103  1.0200000000000E+00 -7.1913872387666E-01  1.1134507523353E+00
   104  1.0300000000000E+00 -7.2685088005410E-01  1.1115056784999E+00
   105  1.0400000000000E+00 -7.3296077167052E-01  1.1090310598861E+00
   106  1.0500000000000E+00 -7.3750048709062E-01  1.1060202641096E+00
   107  1.0600000000000E+00 -7.4050543641320E-01  1.1024674859090E+00
   108  1.0700000000000E+00 -7.4201413679462E-01  1.0983678363793E+00
   109  1.0800000000000E+00 -7.4206799305671E-01  1.0937174278743E+00
   110  1.0900000000000E+00 -7.4071107503132E-01  1.0885134534307E+00
   111  1.1000000000000E+00 -7.3798989306392E-01  1.0827542596209E+00
   112  1.1100000000000E+00 -7.3395317305439E-01  1.0764394118044E+00
   113  1.1200000000000E+00 -7.2865163235601E-01  1.0695697508356E+00
   114  1.1300000000000E+00 -7.2213775778332E-01  1.0621474403753E+00
   115  1.1400000000000E+00 -7.1446558689849E-01  1.0541760040683E+00
   116  1.1500000000000E+00 -7.0569049365348E-01  1.0456603519637E+00
   117  1.1600000000000E+00 -6.9586897936511E-01  1.0366067956885E+00
   118  1.1700000000000E+00 -6.8505846989105E-01  1.0270230520195E+00
   119  1.1800000000000E+00 -6.7331711976128E-01  1.0169182346439E+00
   120  1.1900000000000E+00 -6.6070362389970E-01  1.0063028340468E+00
   121  1.2000000000000E+00 -6.4727703745001E-01  9.9518868561268E-01
   122  1.2100000000000E+00 -6.3309660409664E-01  9.8358892618041E-01
   123  1.2200000000000E+00 -6.1822159314959E-01  9.7151793943692E-01
   124  1.2300000000000E+00 -6.0271114554248E-01  9.5899129068200E-01
   125  1.2400000000000E+00 -5.8662412877692E-01  9.4602565163355E-01
   126  1.2500000000000E+00 -5.7001900073592E-01  9.3263871607344E-01
   127  1.2600000000000E+00 -5.5295368218567E-01  9.1884910725572E-01
   128  1.2700000000000E+00 -5.3548543768940E-01  9.0467627810828E-01
   129  1.2800000000000E+00 -5.1767076457167E-01  8.9014040535526E-01
   130  1.2900000000000E+00 -4.9956528949586E-01  8.7526227877065E-01
   131  1.3000000000000E+00 -4.8122367215410E-01  8.6006318683966E-01
   132  1.3100000000000E+00 -4.6269951551750E-01  8.4456480015498E-01
   133  1.3200000000000E+00 -4.4404528205561E-01  8.2878905390829E-01
   134  1.3300000000000E+00 -4.2531221530875E-01  8.1275803085241E-01
   135  1.3400000000000E+00 -4.0655026618457E-01  7.9649384610693E-01
   136  1.3500000000000E+00 -3.8780802335121E-01  7.8001853515958E-01
   137  1.3600000000000E+00 -3.6913264711359E-01  7.6335394637679E-01
   138  1.3700000000000E+00 -3.5056980618587E-01  7.4652163928146E-01
   139  1.3800000000000E+00 -3.3216361681216E-01  7.2954278978303E-01
   140  1.3900000000000E+00 -3.1395658373650E-01  7.1243810345770E-01
   141  1.4000000000000E+00 -2.9598954258382E-01  6.9522773787363E-01
   142  1.4100000000000E+00 -2.7830160328188E-01  6.7793123484053E-01
   143  1.4200000000000E+00 -2.6093009423090E-01  6.6056746333657E-01
   144  1.4300000000000E+00 -2.4391050701046E-01  6.4315457372836E-01
   145  1.4400000000000E+00 -2.2727644150060E-01  6.2570996375563E-01
   146  1.4500000000000E+00 -2.1105955138508E-01  6.0825025660158E-01
   147  1.4600000000000E+00 -1.9528949009706E-01  5.9079129121573E-01
   148  1.4700000000000E+00 -1.7999385735942E-01  5.7334812490040E-01
   149  1.4800000000000E+00 -1.6519814656274E-01  5.5593504801617E-01
   150  1.4900000000000E+00 -1.5092569331064E-01  5.3856561050922E-01
   151  1.5000000000000E+00 -1.3719762554421E-01  5.2125265981530E-01
   152  1.5100000000000E+00 -1.2403281573268E-01  5.0400838955337E-01
   153  1.5200000000000E+00 -1.1144783568484E-01  4.8684439828981E-01
   154  1.5300000000000E+00 -9.9456914593588E-02  4.6977175753147E-01
   155  1.5400000000000E+00 -8.8071900973517E-02  4.5280108799629E-01
   156  1.5500000000000E+00 -7.7302229187466E-02  4.3594264311363E-01
   157  1.5600000000000E+00 -6.7154891281311E-02  4.1920639862509E-01
   158  1.5700000000000E+00 -5.7634414856779E-02  4.0260214709164E-01
   159  1.5800000000000E+00 -4.8742847708863E-02  3.8613959606400E-01
   160  1.5900000000000E+00 -4.0479749937472E-02  3.6982846864275E-01
   161  1.6000000000000E+00 -3.2842194212069E-02  3.5367860514152E-01
   162  1.6100000000000E+00 -2.5824774823436E-02  3.3770006457140E-01
   163  1.6200000000000E+00 -1.9419626098777E-02  3.2190322468769E-01
   164  1.6300000000000E+00 -1.3616450685574E-02  3.0629887938035E-01
   165  1.6400000000000E+00 -8.4025581269788E-03  2.9089833224629E-01
   166  1.6500000000000E+00 -3.7629140576887E-03  2.7571348525441E-01
   167  1.6600000000000E+00  3.1979975435711E-04  2.6075692150208E-01
   168  1.6700000000000E+00  3.8651144072528E-03  2.4604198116237E-01
   169  1.6800000000000E+00  6.8946919114454E-03  2.3158282983426E-01
   170  1.6900000000000E+00  9.4322324139311E-03  2.1739451863090E-01
   171  1.7000000000000E+00  1.1503370859707E-02  2.0349303547241E-01
   172  1.7100000000000E+00  1.3135563480439E-02  1.8989534718699E-01
   173  1.7200000000000E+00  1.4357964735292E-02  1.7661943235314E-01
   174  1.7300000000000E+00  1.5201295251885E-02  1.6368430456374E-01
   175  1.7400000000000E+00  1.5697696996490E-02  1.5111001817946E-01
   176  1.7500000000000E+00  1.5880604737716E-02  1.3891770679149E-01
   177  1.7600000000000E+00  1.5784449913247E-02  1.2712932390978E-01
   178  1.7700000000000E+00  1.5443887715949E-02  1.1576655186221E-01
   179  1.7800000000000E+00  1.4893124664647E-02  1.0484994212594E-01
   180  1.7900000000000E+00  1.4165702743399E-02  9.4398889042649E-02
   181  1.8000000000000E+00  1.3294285251785E-02  8.4431596378704E-02
   182  1.8100000000000E+00  1.2310449764885E-02  7.4965045512126E-02
   183  1.8200000000000E+00  1.1244485388196E-02  6.6014958440831E-02
   184  1.8300000000000E+00  1.0125195821256E-02  5.7595756897149E-02
   185  1.8400000000000E+00  8.9797110143541E-03  4.9720522206848E-02
   186  1.8500000000000E+00  7.8332947455150E-03  4.2400921152402E-02
   187  1.8600000000000E+00  6.7092102088570E-03  3.5647250121249E-02
   188  1.8700000000000E+00  5.6284964974287E-03  2.9468246301982E-02
   189  1.8800000000000E+00  4.6089679005407E-03  2.3868776587172E-02
   190  1.8900000000000E+00  3.6656288609603E-03  1.8851102486099E-02
   191  1.9000000000000E+00  2.8131173109707E-03  1.4421572329608E-02
   192  1.9100000000000E+00  2.0631684445964E-03  1.0584520362664E-02
   193  1.9200000000000E+00  1.4245917835678E-03  7.3423452153897E-03
   194  1.9300000000000E+00  9.0320586439374E-04  4.6954611127236E-03
   195  1.9400000000000E+00  5.0195223071736E-04  2.6431450543681E-03
   196  1.9500000000000E+00  2.1951374620791E-04  1.1756694574481E-03
   197  1.9600000000000E+00  5.5913745459045E-05  3.0618305411459E-04
   198  1.9700000000000E+00  4.6753441487413E-07  2.6497744141843E-06
   199  1.9800000000000E+00 -1.2830015223587E-06 -7.2678862392435E-06
   200  1.9900000000000E+00  8.4750651090676E-07  4.7078949164632E-06
   201  2.00 -0. -0.
   202  2.01  0. -0.
   203  2.02  0.  0.
   204  2.03  0.  0.
   205  2.04  0.  0.
   206  2.05  0.  0.
   207  2.06  0.  0.
   208  2.07  0.  0.
   209  2.08  0.  0.
   210  2.09  0.  0.
   211  2.10  0.  0.
   212  2.11  0.  0.
   213  2.12  0.  0.
   214  2.13  0.  0.
   215  2.14  0.  0.
   216  2.15  0.  0.
   217  2.16  0.  0.
   218  2.17  0.  0.
   219  2.18  0.  0.
   220  2.19  0.  0.
   221  2.20  0.  0.
   222  2.21  0.  0.
   223  2.22  0.  0.
   224  2.23  0.  0.
   225  2.24  0.  0.
   226  2.25  0.  0.
   227  2.26  0.  0.
   228  2.27  0.  0.
   229  2.28  0.  0.
   230  2.29  0.  0.
   231  2.30  0.  0.
   232  2.31  0.  0.
   233  2.32  0.  0.
   234  2.33  0.  0.
   235  2.34  0.  0.
   236  2.35  0.  0.
   237  2.36  0.  0.
   238  2.37  0.  0.
   239  2.38  0.  0.
   240  2.39  0.  0.
   241  2.40  0.  0.
   242  2.41  0.  0.
   243  2.42  0.  0.
   244  2.43  0.  0.
   245  2.44  0.  0.
   246  2.45  0.  0.
   247  2.46  0.  0.
   248  2.47  0.  0.
   249  2.48  0.  0.
   250  2.49  0.  0.
   251  2.50  0.  0.
   252  2.51  0.  0.
   253  2.52  0.  0.
   254  2.53  0.  0.
   255  2.54  0.  0.
   256  2.55  0.  0.
   257  2.56  0.  0.
   258  2.57  0.  0.
   259  2.58  0.  0.
   260  2.59  0.  0.
   261  2.60  0.  0.
   262  2.61  0.  0.
   263  2.62  0.  0.
   264  2.63  0.  0.
   265  2.64  0.  0.
   266  2.65  0.  0.
   267  2.66  0.  0.
   268  2.67  0.  0.
   269  2.68  0.  0.
   270  2.69  0.  0.
   271  2.70  0.  0.
   272  2.71  0.  0.
   273  2.72  0.  0.
   274  2.73  0.  0.
   275  2.74  0.  0.
   276  2.75  0.  0.
   277  2.76  0.  0.
   278  2.77  0.  0.
   279  2.78  0.  0.
   280  2.79  0.  0.
   281  2.80  0.  0.
   282  2.81  0.  0.
   283  2.82  0.  0.
   284  2.83  0.  0.
   285  2.84  0.  0.
   286  2.85  0.  0.
   287  2.86  0.  0.
   288  2.87  0.  0.
   289  2.88  0.  0.
   290  2.89  0.  0.
   291  2.90  0.  0.
   292  2.91  0.  0.
   293  2.92  0.  0.
   294  2.93  0.  0.
   295  2.94  0.  0.
   296  2.95  0.  0.
   297  2.96  0.  0.
   298  2.97  0.  0.
   299  2.98  0.  0.
   300  2.99  0.  0.
   301  3.00  0.  0.
   302  3.01  0.  0.
   303  3.02  0.  0.
   304  3.03  0.  0.
   305  3.04  0.  0.
   306  3.05  0.  0.
   307  3.06  0.  0.
   308  3.07  0.  0.
   309  3.08  0.  0.
   310  3.09  0.  0.
   311  3.10  0.  0.
   312  3.11  0.  0.
   313  3.12  0.  0.
   314  3.13  0.  0.
   315  3.14  0.  0.
   316  3.15  0.  0.
   317  3.16  0.  0.
   318  3.17  0.  0.
   319  3.18  0.  0.
   320  3.19  0.  0.
   321  3.20  0.  0.
   322  3.21  0.  0.
   323  3.22  0.  0.
   324  3.23  0.  0.
   325  3.24  0.  0.
   326  3.25  0.  0.
   327  3.26  0.  0.
   328  3.27  0.  0.
   329  3.28  0.  0.
   330  3.29  0.  0.
   331  3.30  0.  0.
   332  3.31  0.  0.
   333  3.32  0.  0.
   334  3.33  0.  0.
   335  3.34  0.  0.
   336  3.35  0.  0.
   337  3.36  0.  0.
   338  3.37  0.  0.
   339  3.38  0.  0.
   340  3.39  0.  0.
   341  3.40  0.  0.
   342  3.41  0.  0.
   343  3.42  0.  0.
   344  3.43  0.  0.
   345  3.44  0.  0.
   346  3.45  0.  0.
   347  3.46  0.  0.
   348  3.47  0.  0.
   349  3.48  0.  0.
   350  3.49  0.  0.
   351  3.50  0.  0.
   352  3.51  0.  0.
   353  3.52  0.  0.
   354  3.53  0.  0.
   355  3.54  0.  0.
   356  3.55  0.  0.
   357  3.56  0.  0.
   358  3.57  0.  0.
   359  3.58  0.  0.
   360  3.59  0.  0.
   361  3.60  0.  0.
   362  3.61  0.  0.
   363  3.62  0.  0.
   364  3.63  0.  0.
   365  3.64  0.  0.
   366  3.65  0.  0.
   367  3.66  0.  0.
   368  3.67  0.  0.
   369  3.68  0.  0.
   370  3.69  0.  0.
   371  3.70  0.  0.
   372  3.71  0.  0.
   373  3.72  0.  0.
   374  3.73  0.  0.
   375  3.74  0.  0.
   376  3.75  0.  0.
   377  3.76  0.  0.
   378  3.77  0.  0.
   379  3.78  0.  0.
   380  3.79  0.  0.
   381  3.80  0.  0.
   382  3.81  0.  0.
   383  3.82  0.  0.
   384  3.83  0.  0.
   385  3.84  0.  0.
   386  3.85  0.  0.
   387  3.86  0.  0.
   388  3.87  0.  0.
   389  3.88  0.  0.
   390  3.89  0.  0.
   391  3.90  0.  0.
   392  3.91  0.  0.
   393  3.92  0.  0.
   394  3.93  0.  0.
   395  3.94  0.  0.
   396  3.95  0.  0.
   397  3.96  0.  0.
   398  3.97  0.  0.
   399  3.98  0.  0.
   400  3.99  0.  0.
   401  4.00  0.  0.
   402  4.01  0.  0.
   403  4.02  0.  0.
   404  4.03  0.  0.
   405  4.04  0.  0.
   406  4.05  0.  0.
   407  4.06  0.  0.
   408  4.07  0.  0.
   409  4.08  0.  0.
   410  4.09  0.  0.
   411  4.10  0.  0.
   412  4.11  0.  0.
   413  4.12  0.  0.
   414  4.13  0.  0.
   415  4.14  0.  0.
   416  4.15  0.  0.
   417  4.16  0.  0.
   418  4.17  0.  0.
   419  4.18  0.  0.
   420  4.19  0.  0.
   421  4.20  0.  0.
   422  4.21  0.  0.
   423  4.22  0.  0.
   424  4.23  0.  0.
   425  4.24  0.  0.
   426  4.25  0.  0.
   427  4.26  0.  0.
   428  4.27  0.  0.
   429  4.28  0.  0.
   430  4.29  0.  0.
   431  4.30  0.  0.
   432  4.31  0.  0.
   433  4.32  0.  0.
   434  4.33  0.  0.
   435  4.34  0.  0.
   436  4.35  0.  0.
   437  4.36  0.  0.
   438  4.37  0.  0.
   439  4.38  0.  0.
   440  4.39  0.  0.
   441  4.40  0.  0.
   442  4.41  0.  0.
   443  4.42  0.  0.
   444  4.43  0.  0.
   445  4.44  0.  0.
   446  4.45  0.  0.
   447  4.46  0.  0.
   448  4.47  0.  0.
   449  4.48  0.  0.
   450  4.49  0.  0.
   451  4.50  0.  0.
   452  4.51  0.  0.
   453  4.52  0.  0.
   454  4.53  0.  0.
   455  4.54  0.  0.
   456  4.55  0.  0.
   457  4.56  0.  0.
   458  4.57  0.  0.
   459  4.58  0.  0.
   460  4.59  0.  0.
   461  4.60  0.  0.
   462  4.61  0.  0.
   463  4.62  0.  0.
   464  4.63  0.  0.
   465  4.64  0.  0.
   466  4.65  0.  0.
   467  4.66  0.  0.
   468  4.67  0.  0.
   469  4.68  0.  0.
   470  4.69  0.  0.
   471  4.70  0.  0.
   472  4.71  0.  0.
   473  4.72  0.  0.
   474  4.73  0.  0.
   475  4.74  0.  0.
   476  4.75  0.  0.
   477  4.76  0.  0.
   478  4.77  0.  0.
   479  4.78  0.  0.
   480  4.79  0.  0.
   481  4.80  0.  0.
   482  4.81  0.  0.
   483  4.82  0.  0.
   484  4.83  0.  0.
   485  4.84  0.  0.
   486  4.85  0.  0.
   487  4.86  0.  0.
   488  4.87  0.  0.
   489  4.88  0.  0.
   490  4.89  0.  0.
   491  4.90  0.  0.
   492  4.91  0.  0.
   493  4.92  0.  0.
   494  4.93  0.  0.
   495  4.94  0.  0.
   496  4.95  0.  0.
   497  4.96  0.  0.
   498  4.97  0.  0.
   499  4.98  0.  0.
   500  4.99  0.  0.
   501  5.00  0.  0.
   502  5.01  0.  0.
   503  5.02  0.  0.
   504  5.03  0.  0.
   505  5.04  0.  0.
   506  5.05  0.  0.
   507  5.06  0.  0.
   508  5.07  0.  0.
   509  5.08  0.  0.
   510  5.09  0.  0.
   511  5.10  0.  0.
   512  5.11  0.  0.
   513  5.12  0.  0.
   514  5.13  0.  0.
   515  5.14  0.  0.
   516  5.15  0.  0.
   517  5.16  0.  0.
   518  5.17  0.  0.
   519  5.18  0.  0.
   520  5.19  0.  0.
   521  5.20  0.  0.
   522  5.21  0.  0.
   523  5.22  0.  0.
   524  5.23  0.  0.
   525  5.24  0.  0.
   526  5.25  0.  0.
   527  5.26  0.  0.
   528  5.27  0.  0.
   529  5.28  0.  0.
   530  5.29  0.  0.
   531  5.30  0.  0.
   532  5.31  0.  0.
   533  5.32  0.  0.
   534  5.33  0.  0.
   535  5.34  0.  0.
   536  5.35  0.  0.
   537  5.36  0.  0.
   538  5.37  0.  0.
   539  5.38  0.  0.
   540  5.39  0.  0.
   541  5.40  0.  0.
   542  5.41  0.  0.
   543  5.42  0.  0.
   544  5.43  0.  0.
   545  5.44  0.  0.
   546  5.45  0.  0.
   547  5.46  0.  0.
   548  5.47  0.  0.
   549  5.48  0.  0.
   550  5.49  0.  0.
   551  5.50  0.  0.
   552  5.51  0.  0.
   553  5.52  0.  0.
   554  5.53  0.  0.
   555  5.54  0.  0.
   556  5.55  0.  0.
   557  5.56  0.  0.
   558  5.57  0.  0.
   559  5.58  0.  0.
   560  5.59  0.  0.
   561  5.60  0.  0.
   562  5.61  0.  0.
   563  5.62  0.  0.
   564  5.63  0.  0.
   565  5.64  0.  0.
   566  5.65  0.  0.
   567  5.66  0.  0.
   568  5.67  0.  0.
   569  5.68  0.  0.
   570  5.69  0.  0.
   571  5.70  0.  0.
   572  5.71  0.  0.
   573  5.72  0.  0.
   574  5.73  0.  0.
   575  5.74  0.  0.
   576  5.75  0.  0.
   577  5.76  0.  0.
   578  5.77  0.  0.
   579  5.78  0.  0.
   580  5.79  0.  0.
   581  5.80  0.  0.
   582  5.81  0.  0.
   583  5.82  0.  0.
   584  5.83  0.  0.
   585  5.84  0.  0.
   586  5.85  0.  0.
   587  5.86  0.  0.
   588  5.87  0.  0.
   589  5.88  0.  0.
   590  5.89  0.  0.
   591  5.90  0.  0.
   592  5.91  0.  0.
   593  5.92  0.  0.
   594  5.93  0.  0.
   595  5.94  0.  0.
   596  5.95  0.  0.
   597  5.96  0.  0.
   598  5.97  0.  0.
   599  5.98  0.  0.
   600  5.99  0.  0.
   1                         1.4072826254277E+00 -1.3384990488724E+00
     1  0.0000000000000E+00  3.5757117960999E-09 -1.5888984572499E-10
     2  1.0000000000000E-02  1.8751204278070E-03  3.9195957994014E-04
     3  2.0000000000000E-02  7.4875470383267E-03  1.5678375010044E-03
     4  3.0000000000000E-02  1.6798613214111E-02  3.5276254841525E-03
     5  4.0000000000000E-02  2.9744330533542E-02  6.2712904136184E-03
     6  5.0000000000000E-02  4.6236065497673E-02  9.7987456806082E-03
     7  6.0000000000000E-02  6.6161472704494E-02  1.4109811698357E-02
     8  7.0000000000000E-02  8.9385670517902E-02  1.9204166209251E-02
     9  8.0000000000000E-02  1.1575264170299E-01  2.5081285163608E-02
    10  9.0000000000000E-02  1.4508683821928E-01  3.1740375095156E-02
    11  1.0000000000000E-01  1.7719496643837E-01  3.9180298047822E-02
    12  1.1000000000000E-01  2.1186792652748E-01  4.7399490219986E-02
    13  1.2000000000000E-01  2.4888287766110E-01  5.6395875584014E-02
    14  1.3000000000000E-01  2.8800539912157E-01  6.6166775809035E-02
    15  1.4000000000000E-01  3.2899171625132E-01  7.6708817862873E-02
    16  1.5000000000000E-01  3.7159095964570E-01  8.8017840693490E-02
    17  1.6000000000000E-01  4.1554742592819E-01  1.0008880239159E-01
    18  1.7000000000000E-01  4.6060280893353E-01  1.1291568921403E-01
    19  1.8000000000000E-01  5.0649837112395E-01  1.2649142780282E-01
    20  1.9000000000000E-01  5.5297702656402E-01  1.4080780186836E-01
    21  2.0000000000000E-01  5.9978530874741E-01  1.5585537451878E-01
    22  2.1000000000000E-01  6.4667519897343E-01  1.7162341731229E-01
    23  2.2000000000000E-01  6.9340579376367E-01  1.8809984698776E-01
    24  2.3000000000000E-01  7.3974479294069E-01  2.0527117069362E-01
    25  2.4000000000000E-01  7.8546979340619E-01  2.2312244038777E-01
    26  2.5000000000000E-01  8.3036937729110E-01  2.4163721692654E-01
    27  2.6000000000000E-01  8.7424398694138E-01  2.6079754419899E-01
    28  2.7000000000000E-01  9.1690658308258E-01  2.8058393350022E-01
    29  2.8000000000000E-01  9.5818308640290E-01  3.0097535817404E-01
    30  2.9000000000000E-01  9.9791260664195E-01  3.2194925839659E-01
    31  3.0000000000000E-01  1.0359474669971E+00  3.4348155582006E-01
    32  3.1000000000000E-01  1.0721530352016E+00  3.6554667765281E-01
    33  3.2000000000000E-01  1.1064073759195E+00  3.8811758962164E-01
    34  3.3000000000000E-01  1.1386007420854E+00  4.1116583714570E-01
    35  3.4000000000000E-01  1.1686349254460E+00  4.3466159395255E-01
    36  3.5000000000000E-01  1.1964224887722E+00  4.5857371728538E-01
    37  3.6000000000000E-01  1.2218859039915E+00  4.8286980879002E-01
    38  3.7000000000000E-01  1.2449566217824E+00  5.0751628012951E-01
    39  3.8000000000000E-01  1.2655740989758E+00  5.3247842235576E-01
    40  3.9000000000000E-01  1.2836848103957E+00  5.5772047807019E-01
    41  4.0000000000000E-01  1.2992412715469E+00  5.8320571542977E-01
    42  4.1000000000000E-01  1.3122010978209E+00  6.0889650309927E-01
    43  4.2000000000000E-01  1.3225261246596E+00  6.3475438531493E-01
    44  4.3000000000000E-01  1.3301816114177E+00  6.6074015630673E-01
    45  4.4000000000000E-01  1.3351355495218E+00  6.8681393342490E-01
    46  4.5000000000000E-01  1.3373580929848E+00  7.1293522842778E-01
    47  4.6000000000000E-01  1.3368211264458E+00  7.3906301651209E-01
    48  4.7000000000000E-01  1.3334979827165E+00  7.6515580279788E-01
    49  4.8000000000000E-01  1.3273633183913E+00  7.9117168611824E-01
    50  4.9000000000000E-01  1.3183931524808E+00  8.1706842010333E-01
    51  5.0000000000000E-01  1.3065650693226E+00  8.4280347168786E-01
    52  5.1000000000000E-01  1.2918585832852E+00  8.6833407730592E-01
    53  5.2000000000000E-01  1.2742556590717E+00  8.9361729716574E-01
    54  5.3000000000000E-01  1.2537413778281E+00  9.1861006811488E-01
    55  5.4000000000000E-01  1.2303047358303E+00  9.4326925571170E-01
    56  5.5000000000000E-01  1.2039395593294E+00  9.6755170620897E-01
    57  5.6000000000000E-01  1.1746455162388E+00  9.9141429922700E-01
    58  5.7000000000000E-01  1.1424292028089E+00  1.0148140019462E+00
    59  5.8000000000000E-01  1.1073052812960E+00  1.0377079256792E+00
    60  5.9000000000000E-01  1.0692976429452E+00  1.0600533856909E+00
    61  6.0000000000000E-01  1.0284405693991E+00  1.0818079651188E+00
    62  6.1000000000000E-01  9.8477986494551E-01  1.1029295838076E+00
    63  6.2000000000000E-01  9.3837393184251E-01  1.1233765728072E+00
    64  6.3000000000000E-01  8.8929476131824E-01  1.1431077552003E+00
    65  6.4000000000000E-01  8.3762881373080E-01  1.1620825338149E+00
    66  6.5000000000000E-01  7.8347776278021E-01  1.1802609862515E+00
    67  6.6000000000000E-01  7.2695908056899E-01  1.1976039675085E+00
    68  6.7000000000000E-01  6.6820644267776E-01  1.2140732203251E+00
    69  6.8000000000000E-01  6.0736993522071E-01  1.2296314931899E+00
    70  6.9000000000000E-01  5.4461604902395E-01  1.2442426657766E+00
    71  7.0000000000000E-01  4.8012744957390E-01  1.2578718813767E+00
    72  7.1000000000000E-01  4.1410251515276E-01  1.2704856857083E+00
    73  7.2000000000000E-01  3.4675463954707E-01  1.2820521712826E+00
    74  7.3000000000000E-01  2.7831129981438E-01  1.2925411263274E+00
    75  7.4000000000000E-01  2.0901289374867E-01  1.3019241870821E+00
    76  7.5000000000000E-01  1.3911135582353E-01  1.3101749921141E+00
    77  7.6000000000000E-01  6.8868564438797E-02  1.3172693371559E+00
    78  7.7000000000000E-01 -1.4454428221784E-03  1.3231853288282E+00
    79  7.8000000000000E-01 -7.1554425573095E-02  1.3279035355058E+00
    80  7.9000000000000E-01 -1.4117804494913E-01  1.3314071334999E+00
    81  8.0000000000000E-01 -2.1003408920651E-01  1.3336820466719E+00
    82  8.1000000000000E-01 -2.7784079137440E-01  1.3347170775681E+00
    83  8.2000000000000E-01 -3.4431920765494E-01  1.3345040281689E+00
    84  8.3000000000000E-01 -4.0919562369793E-01  1.3330378083802E+00
    85  8.4000000000000E-01 -4.7220395485193E-01  1.3303165304661E+00
    86  8.5000000000000E-01 -5.3308810603766E-01  1.3263415877196E+00
    87  8.6000000000000E-01 -5.9160425701487E-01  1.3211177158003E+00
    88  8.7000000000000E-01 -6.4752303952159E-01  1.3146530353315E+00
    89  8.8000000000000E-01 -7.0063157405057E-01  1.3069590745367E+00
    90  8.9000000000000E-01 -7.5073533587267E-01  1.2980507709109E+00
    91  9.0000000000000E-01 -7.9765982229063E-01  1.2879464511621E+00
    92  9.1000000000000E-01 -8.4125199597822E-01  1.2766677889115E+00
    93  9.2000000000000E-01 -8.8138148257622E-01  1.2642397399179E+00
    94  9.3000000000000E-01 -9.1794150442830E-01  1.2506904548705E+00
    95  9.4000000000000E-01 -9.5084953638279E-01  1.2360511700883E+00
    96  9.5000000000000E-01 -9.8004767389616E-01  1.2203560767536E+00
    97  9.6000000000000E-01 -1.0055027081696E+00  1.2036421695987E+00
    98  9.7000000000000E-01 -1.0272059076690E+00  1.1859490762441E+00
    99  9.8000000000000E-01 -1.0451725100230E+00  1.1673188686591E+00
   100  9.9000000000000E-01 -1.0594409329054E+00  1.1477958584647E+00
   101  1.0000000000000E+00 -1.0700717169832E+00  1.1274263780308E+00