Ag    ONCVPSP-4.0.1  r_core=   1.90541   2.21278   2.46435
     47.0000     19.0000      210704    zatom,zion,pspd
     8      11   2     4   600     0    pspcod,pspxc,lmax,lloc,mmax,r2well
  5.99000000  7.00000000  0.00000000    rchrg fchrg qchrg
     2     2     2     0     0    nproj
     1     1           extension_switch
   0                         5.1226613249789E+00  9.0794165077171E-01
     1  0.0000000000000E+00 -6.1373073290127E-11  1.5423526344982E-10
     2  1.0000000000000E-02  6.2961029074332E-02 -1.1070556236649E-02
     3  2.0000000000000E-02  1.2579190049218E-01 -2.2030175290970E-02
     4  3.0000000000000E-02  1.8836290334372E-01 -3.2768635383376E-02
     5  4.0000000000000E-02  2.5054521780990E-01 -4.3177140219760E-02
     6  5.0000000000000E-02  3.1221135471731E-01 -5.3149018473405E-02
     7  6.0000000000000E-02  3.7323558794770E-01 -6.2580407463349E-02
     8  7.0000000000000E-02  4.3349437739291E-01 -7.1370915943022E-02
     9  8.0000000000000E-02  4.9286678020690E-01 -7.9424261067214E-02
    10  9.0000000000000E-02  5.5123484818299E-01 -8.6648874796389E-02
    11  1.0000000000000E-01  6.0848400917421E-01 -9.2958475223814E-02
    12  1.1000000000000E-01  6.6450343057880E-01 -9.8272598571491E-02
    13  1.2000000000000E-01  7.1918636302950E-01 -1.0251708789372E-01
    14  1.3000000000000E-01  7.7243046255460E-01 -1.0562453485049E-01
    15  1.4000000000000E-01  8.2413808961881E-01 -1.0753467126462E-01
    16  1.5000000000000E-01  8.7421658360369E-01 -1.0819470755416E-01
    17  1.6000000000000E-01  9.2257851144762E-01 -1.0755961553304E-01
    18  1.7000000000000E-01  9.6914188933499E-01 -1.0559235349482E-01
    19  1.8000000000000E-01  1.0138303765008E+00 -1.0226403193443E-01
    20  1.9000000000000E-01  1.0565734404002E+00 -9.7554018717977E-02
    21  2.0000000000000E-01  1.0973064926817E+00 -9.1449982977012E-02
    22  2.1000000000000E-01  1.1359709955919E+00 -8.3947877479253E-02
    23  2.2000000000000E-01  1.1725145386402E+00 -7.5051859707604E-02
    24  2.3000000000000E-01  1.2068908855405E+00 -6.4774152361531E-02
    25  2.4000000000000E-01  1.2390599916505E+00 -5.3134844474288E-02
    26  2.5000000000000E-01  1.2689879923177E+00 -4.0161634814209E-02
    27  2.6000000000000E-01  1.2966471627362E+00 -2.5889519702983E-02
    28  2.7000000000000E-01  1.3220158501054E+00 -1.0360427836222E-02
    29  2.8000000000000E-01  1.3450783790618E+00  6.3771948724150E-03
    30  2.9000000000000E-01  1.3658249315330E+00  2.4268846986706E-02
    31  3.0000000000000E-01  1.3842514023254E+00  4.3254475953375E-02
    32  3.1000000000000E-01  1.4003592319189E+00  6.3269021022711E-02
    33  3.2000000000000E-01  1.4141552180835E+00  8.4242990153449E-02
    34  3.3000000000000E-01  1.4256513080693E+00  1.0610306606882E-01
    35  3.4000000000000E-01  1.4348643732423E+00  1.2877273636389E-01
    36  3.5000000000000E-01  1.4418159681429E+00  1.5217294233644E-01
    37  3.6000000000000E-01  1.4465320760390E+00  1.7622274102668E-01
    38  3.7000000000000E-01  1.4490428431175E+00  2.0083997480729E-01
    39  3.8000000000000E-01  1.4493823035196E+00  2.2594194276672E-01
    40  3.9000000000000E-01  1.4475880974654E+00  2.5144606807621E-01
    41  4.0000000000000E-01  1.4437011847366E+00  2.7727055552701E-01
    42  4.1000000000000E-01  1.4377655557933E+00  3.0333503346806E-01
    43  4.2000000000000E-01  1.4298279427849E+00  3.2956117446803E-01
    44  4.3000000000000E-01  1.4199375326861E+00  3.5587328916771E-01
    45  4.4000000000000E-01  1.4081456847375E+00  3.8219888798014E-01
    46  4.5000000000000E-01  1.3945056543012E+00  4.0846920553514E-01
    47  4.6000000000000E-01  1.3790723251585E+00  4.3461968305075E-01
    48  4.7000000000000E-01  1.3619019521675E+00  4.6059040414610E-01
    49  4.8000000000000E-01  1.3430519160853E+00  4.8632647998438E-01
    50  4.9000000000000E-01  1.3225804922158E+00  5.1177838005065E-01
    51  5.0000000000000E-01  1.3005466343984E+00  5.3690220532302E-01
    52  5.1000000000000E-01  1.2770097756863E+00  5.6165990108390E-01
    53  5.2000000000000E-01  1.2520296468830E+00  5.8601940713842E-01
    54  5.3000000000000E-01  1.2256661139227E+00  6.0995474375405E-01
    55  5.4000000000000E-01  1.1979790348767E+00  6.3344603220585E-01
    56  5.5000000000000E-01  1.1690281371654E+00  6.5647944940045E-01
    57  5.6000000000000E-01  1.1388729153428E+00  6.7904711665474E-01
    58  5.7000000000000E-01  1.1075725496023E+00  7.0114692331571E-01
    59  5.8000000000000E-01  1.0751858449369E+00  7.2278228652303E-01
    60  5.9000000000000E-01  1.0417711906638E+00  7.4396184902776E-01
    61  6.0000000000000E-01  1.0073865398087E+00  7.6469911758592E-01
    62  6.1000000000000E-01  9.7208940762968E-01  7.8501204503678E-01
    63  6.2000000000000E-01  9.3593688835070E-01  8.0492255974959E-01
    64  6.3000000000000E-01  8.9898568897630E-01  8.2445604667027E-01
    65  6.4000000000000E-01  8.6129217886480E-01  8.4364078471968E-01
    66  6.5000000000000E-01  8.2291245355942E-01  8.6250734577865E-01
    67  6.6000000000000E-01  7.8390241120900E-01  8.8108796093956E-01
    68  6.7000000000000E-01  7.4431783975916E-01  8.9941586010335E-01
    69  6.8000000000000E-01  7.0421451295997E-01  9.1752459135133E-01
    70  6.9000000000000E-01  6.6364829312010E-01  9.3544732681719E-01
    71  7.0000000000000E-01  6.2267523844116E-01  9.5321616202412E-01
    72  7.1000000000000E-01  5.8135171269046E-01  9.7086141583088E-01
    73  7.2000000000000E-01  5.3973449491736E-01  9.8841093824545E-01
    74  7.3000000000000E-01  4.9788088688810E-01  1.0058894334148E+00
    75  7.4000000000000E-01  4.5584881590732E-01  1.0233178050817E+00
    76  7.5000000000000E-01  4.1369693071229E-01  1.0407125317125E+00
    77  7.6000000000000E-01  3.7148468816747E-01  1.0580850783445E+00
    78  7.7000000000000E-01  3.2927242855358E-01  1.0754413519785E+00
    79  7.8000000000000E-01  2.8712143733562E-01  1.0927812070465E+00
    80  7.9000000000000E-01  2.4509399140852E-01  1.1100980071280E+00
    81  8.0000000000000E-01  2.0325338795623E-01  1.1273782486620E+00
    82  8.1000000000000E-01  1.6166395421923E-01  1.1446012519179E+00
    83  8.2000000000000E-01  1.2039103664559E-01  1.1617389239405E+00
    84  8.3000000000000E-01  7.9500968100600E-02  1.1787555975873E+00
    85  8.4000000000000E-01  3.9061012027079E-02  1.1956079501257E+00
    86  8.5000000000000E-01 -8.6071731717110E-04  1.2122450041624E+00
    87  8.6000000000000E-01 -4.0195359170885E-02  1.2286082129445E+00
    88  8.7000000000000E-01 -7.8873435495898E-02  1.2446316313030E+00
    89  8.8000000000000E-01 -1.1682500521532E-01  1.2602421727160E+00
    90  8.9000000000000E-01 -1.5397984328328E-01  1.2753599521567E+00
    91  9.0000000000000E-01 -1.9026764412475E-01  1.2898987135615E+00
    92  9.1000000000000E-01 -2.2561824870084E-01  1.3037663399258E+00
    93  9.2000000000000E-01 -2.5996189417232E-01  1.3168654432051E+00
    94  9.3000000000000E-01 -2.9322948485529E-01  1.3290940303803E+00
    95  9.4000000000000E-01 -3.2535288289024E-01  1.3403462412461E+00
    96  9.5000000000000E-01 -3.5626521678224E-01  1.3505131527106E+00
    97  9.6000000000000E-01 -3.8590120571848E-01  1.3594836436489E+00
    98  9.7000000000000E-01 -4.1419749733212E-01  1.3671453136597E+00
    99  9.8000000000000E-01 -4.4109301636151E-01  1.3733854484202E+00
   100  9.9000000000000E-01 -4.6652932145321E-01  1.3780920237401E+00
   101  1.0000000000000E+00 -4.9045096717874E-01  1.3811547398842E+00
   102  1.0100000000000E+00 -5.1280586818039E-01  1.3824660772630E+00
   103  1.0200000000000E+00 -5.3354566223237E-01  1.3819223642032E+00
   104  1.0300000000000E+00 -5.5262606890285E-01  1.3794248471905E+00
   105  1.0400000000000E+00 -5.7000724043005E-01  1.3748807537492E+00
   106  1.0500000000000E+00 -5.8565410138412E-01  1.3682043379712E+00
   107  1.0600000000000E+00 -5.9953667367562E-01  1.3593178986522E+00
   108  1.0700000000000E+00 -6.1163038349338E-01  1.3481527600210E+00
   109  1.0800000000000E+00 -6.2191634680753E-01  1.3346502051718E+00
   110  1.0900000000000E+00 -6.3038163015981E-01  1.3187623525209E+00
   111  1.1000000000000E+00 -6.3701948358111E-01  1.3004529659152E+00
   112  1.1100000000000E+00 -6.4182954262527E-01  1.2796981894089E+00
   113  1.1200000000000E+00 -6.4481799668849E-01  1.2564871982092E+00
   114  1.1300000000000E+00 -6.4599772099246E-01  1.2308227578484E+00
   115  1.1400000000000E+00 -6.4538836984675E-01  1.2027216842860E+00
   116  1.1500000000000E+00 -6.4301642906867E-01  1.1722151983568E+00
   117  1.1600000000000E+00 -6.3891522572635E-01  1.1393491687669E+00
   118  1.1700000000000E+00 -6.3312489367878E-01  1.1041842386845E+00
   119  1.1800000000000E+00 -6.2569229371546E-01  1.0667958318750E+00
   120  1.1900000000000E+00 -6.1667088744055E-01  1.0272740352746E+00
   121  1.2000000000000E+00 -6.0612056440631E-01  9.8572335589070E-01
   122  1.2100000000000E+00 -5.9410742236546E-01  9.4226235092654E-01
   123  1.2200000000000E+00 -5.8070350088897E-01  8.9702313107515E-01
   124  1.2300000000000E+00 -5.6598646897257E-01  8.5015073797332E-01
   125  1.2400000000000E+00 -5.5003926763332E-01  8.0180239786118E-01
   126  1.2500000000000E+00 -5.3294970887364E-01  7.5214665454201E-01
   127  1.2600000000000E+00 -5.1481003275657E-01  7.0136238576290E-01
   128  1.2700000000000E+00 -4.9571642469467E-01  6.4963770814178E-01
   129  1.2800000000000E+00 -4.7576849539868E-01  5.9716877673468E-01
   130  1.2900000000000E+00 -4.5506872625861E-01  5.4415848625670E-01
   131  1.3000000000000E+00 -4.3372188323672E-01  4.9081508183985E-01
   132  1.3100000000000E+00 -4.1183440263594E-01  4.3735068801771E-01
   133  1.3200000000000E+00 -3.8951375236401E-01  3.8397976536142E-01
   134  1.3300000000000E+00 -3.6686777254310E-01  3.3091750485026E-01
   135  1.3400000000000E+00 -3.4400399951273E-01  2.7837817063662E-01
   136  1.3500000000000E+00 -3.2102897743915E-01  2.2657340234917E-01
   137  1.3600000000000E+00 -2.9804756187460E-01  1.7571048846908E-01
   138  1.3700000000000E+00 -2.7516221970457E-01  1.2599062260743E-01
   139  1.3800000000000E+00 -2.5247232997846E-01  7.7607154702452E-02
   140  1.3900000000000E+00 -2.3007349013841E-01  3.0743849241981E-02
   141  1.4000000000000E+00 -2.0805683201757E-01 -1.4426837858522E-02
   142  1.4100000000000E+00 -1.8650835219831E-01 -5.7745451147061E-02
   143  1.4200000000000E+00 -1.6550826528874E-01 -9.9067169424456E-02
   144  1.4300000000000E+00 -1.4513042087039E-01 -1.3826323445398E-01
   145  1.4400000000000E+00 -1.2544272737352E-01 -1.7521875239736E-01
   146  1.4500000000000E+00 -1.0650799198757E-01 -2.0982921219532E-01
   147  1.4600000000000E+00 -8.8383764158735E-02 -2.4200084632242E-01
   148  1.4700000000000E+00 -7.1122033758989E-02 -2.7165156901720E-01
   149  1.4800000000000E+00 -5.4768966954600E-02 -2.9871180972826E-01
   150  1.4900000000000E+00 -3.9364679020391E-02 -3.2312524660511E-01
   151  1.5000000000000E+00 -2.4943046760977E-02 -3.4484943196570E-01
   152  1.5100000000000E+00 -1.1531562282334E-02 -3.6385630479960E-01
   153  1.5200000000000E+00  8.4877040151330E-04 -3.8013258601033E-01
   154  1.5300000000000E+00  1.2183494787042E-02 -3.9368005305686E-01
   155  1.5400000000000E+00  2.2464716494638E-02 -4.0451569147919E-01
   156  1.5500000000000E+00  3.1691072731787E-02 -4.1267172221337E-01
   157  1.5600000000000E+00  3.9867656254821E-02 -4.1819550335938E-01
   158  1.5700000000000E+00  4.7005894633444E-02 -4.2114930872824E-01
   159  1.5800000000000E+00  5.3123384961849E-02 -4.2160998306001E-01
   160  1.5900000000000E+00  5.8243685125138E-02 -4.1966847682702E-01
   161  1.6000000000000E+00  6.2396063354829E-02 -4.1542926542638E-01
   162  1.6100000000000E+00  6.5615207316136E-02 -4.0900965571337E-01
   163  1.6200000000000E+00  6.7940895046149E-02 -4.0053898624164E-01
   164  1.6300000000000E+00  6.9417629994591E-02 -3.9015772716743E-01
   165  1.6400000000000E+00  7.0094242836714E-02 -3.7801648700032E-01
   166  1.6500000000000E+00  7.0023462993327E-02 -3.6427493411056E-01
   167  1.6600000000000E+00  6.9261463014086E-02 -3.4910064150161E-01
   168  1.6700000000000E+00  6.7867379247312E-02 -3.3266786411526E-01
   169  1.6800000000000E+00  6.5902812382008E-02 -3.1515625837198E-01
   170  1.6900000000000E+00  6.3431311660880E-02 -2.9674955425914E-01
   171  1.7000000000000E+00  6.0517846657284E-02 -2.7763419052482E-01
   172  1.7100000000000E+00  5.7228270655430E-02 -2.5799792395985E-01
   173  1.7200000000000E+00  5.3628779743952E-02 -2.3802842394868E-01
   174  1.7300000000000E+00  4.9785371760431E-02 -2.1791186354594E-01
   175  1.7400000000000E+00  4.5763309249926E-02 -1.9783151841916E-01
   176  1.7500000000000E+00  4.1626590589530E-02 -1.7796638497889E-01
   177  1.7600000000000E+00  3.7437433344392E-02 -1.5848982877671E-01
   178  1.7700000000000E+00  3.3255773863062E-02 -1.3956827411261E-01
   179  1.7800000000000E+00  2.9138788088410E-02 -1.2135994965774E-01
   180  1.7900000000000E+00  2.5140425409416E-02 -1.0401365499399E-01
   181  1.8000000000000E+00  2.1311012422326E-02 -8.7667758166925E-02
   182  1.8100000000000E+00  1.7696764825909E-02 -7.2448823717586E-02
   183  1.8200000000000E+00  1.4338464957590E-02 -5.8466926818458E-02
   184  1.8300000000000E+00  1.1272439213029E-02 -4.5819733440302E-02
   185  1.8400000000000E+00  8.5317440071995E-03 -3.4597509668393E-02
   186  1.8500000000000E+00  6.1438443209695E-03 -2.4874654561905E-02
   187  1.8600000000000E+00  4.1306005109187E-03 -1.6709851165214E-02
   188  1.8700000000000E+00  2.5080962010104E-03 -1.0145585459023E-02
   189  1.8800000000000E+00  1.2869770827309E-03 -5.2096796535214E-03
   190  1.8900000000000E+00  4.6685550394804E-04 -1.8925596099005E-03
   191  1.9000000000000E+00  6.9321883220728E-05 -2.8169496590809E-04
   192  1.9100000000000E+00 -1.2442998591335E-05  5.0618733401343E-05
   193  1.9200000000000E+00  3.2109361729339E-06 -1.3045336843509E-05
   194  1.93 -0.  0.
   195  1.94 -0.  0.
   196  1.95 -0.  0.
   197  1.96  0.  0.
   198  1.97  0.  0.
   199  1.98  0.  0.
   200  1.99  0.  0.
   201  2.00  0.  0.
   202  2.01  0.  0.
   203  2.02  0.  0.
   204  2.03  0.  0.
   205  2.04  0.  0.
   206  2.05  0.  0.
   207  2.06  0.  0.
   208  2.07  0.  0.
   209  2.08  0.  0.
   210  2.09  0.  0.
   211  2.10  0.  0.
   212  2.11  0.  0.
   213  2.12  0.  0.
   214  2.13  0.  0.
   215  2.14  0.  0.
   216  2.15  0.  0.
   217  2.16  0.  0.
   218  2.17  0.  0.
   219  2.18  0.  0.
   220  2.19  0.  0.
   221  2.20  0.  0.
   222  2.21  0.  0.
   223  2.22  0.  0.
   224  2.23  0.  0.
   225  2.24  0.  0.
   226  2.25  0.  0.
   227  2.26  0.  0.
   228  2.27  0.  0.
   229  2.28  0.  0.
   230  2.29  0.  0.
   231  2.30  0.  0.
   232  2.31  0.  0.
   233  2.32  0.  0.
   234  2.33  0.  0.
   235  2.34  0.  0.
   236  2.35  0.  0.
   237  2.36  0.  0.
   238  2.37  0.  0.
   239  2.38  0.  0.
   240  2.39  0.  0.
   241  2.40  0.  0.
   242  2.41  0.  0.
   243  2.42  0.  0.
   244  2.43  0.  0.
   245  2.44  0.  0.
   246  2.45  0.  0.
   247  2.46  0.  0.
   248  2.47  0.  0.
   249  2.48  0.  0.
   250  2.49  0.  0.
   251  2.50  0.  0.
   252  2.51  0.  0.
   253  2.52  0.  0.
   254  2.53  0.  0.
   255  2.54  0.  0.
   256  2.55  0.  0.
   257  2.56  0.  0.
   258  2.57  0.  0.
   259  2.58  0.  0.
   260  2.59  0.  0.
   261  2.60  0.  0.
   262  2.61  0.  0.
   263  2.62  0.  0.
   264  2.63  0.  0.
   265  2.64  0.  0.
   266  2.65  0.  0.
   267  2.66  0.  0.
   268  2.67  0.  0.
   269  2.68  0.  0.
   270  2.69  0.  0.
   271  2.70  0.  0.
   272  2.71  0.  0.
   273  2.72  0.  0.
   274  2.73  0.  0.
   275  2.74  0.  0.
   276  2.75  0.  0.
   277  2.76  0.  0.
   278  2.77  0.  0.
   279  2.78  0.  0.
   280  2.79  0.  0.
   281  2.80  0.  0.
   282  2.81  0.  0.
   283  2.82  0.  0.
   284  2.83  0.  0.
   285  2.84  0.  0.
   286  2.85  0.  0.
   287  2.86  0.  0.
   288  2.87  0.  0.
   289  2.88  0.  0.
   290  2.89  0.  0.
   291  2.90  0.  0.
   292  2.91  0.  0.
   293  2.92  0.  0.
   294  2.93  0.  0.
   295  2.94  0.  0.
   296  2.95  0.  0.
   297  2.96  0.  0.
   298  2.97  0.  0.
   299  2.98  0.  0.
   300  2.99  0.  0.
   301  3.00  0.  0.
   302  3.01  0.  0.
   303  3.02  0.  0.
   304  3.03  0.  0.
   305  3.04  0.  0.
   306  3.05  0.  0.
   307  3.06  0.  0.
   308  3.07  0.  0.
   309  3.08  0.  0.
   310  3.09  0.  0.
   311  3.10  0.  0.
   312  3.11  0.  0.
   313  3.12  0.  0.
   314  3.13  0.  0.
   315  3.14  0.  0.
   316  3.15  0.  0.
   317  3.16  0.  0.
   318  3.17  0.  0.
   319  3.18  0.  0.
   320  3.19  0.  0.
   321  3.20  0.  0.
   322  3.21  0.  0.
   323  3.22  0.  0.
   324  3.23  0.  0.
   325  3.24  0.  0.
   326  3.25  0.  0.
   327  3.26  0.  0.
   328  3.27  0.  0.
   329  3.28  0.  0.
   330  3.29  0.  0.
   331  3.30  0.  0.
   332  3.31  0.  0.
   333  3.32  0.  0.
   334  3.33  0.  0.
   335  3.34  0.  0.
   336  3.35  0.  0.
   337  3.36  0.  0.
   338  3.37  0.  0.
   339  3.38  0.  0.
   340  3.39  0.  0.
   341  3.40  0.  0.
   342  3.41  0.  0.
   343  3.42  0.  0.
   344  3.43  0.  0.
   345  3.44  0.  0.
   346  3.45  0.  0.
   347  3.46  0.  0.
   348  3.47  0.  0.
   349  3.48  0.  0.
   350  3.49  0.  0.
   351  3.50  0.  0.
   352  3.51  0.  0.
   353  3.52  0.  0.
   354  3.53  0.  0.
   355  3.54  0.  0.
   356  3.55  0.  0.
   357  3.56  0.  0.
   358  3.57  0.  0.
   359  3.58  0.  0.
   360  3.59  0.  0.
   361  3.60  0.  0.
   362  3.61  0.  0.
   363  3.62  0.  0.
   364  3.63  0.  0.
   365  3.64  0.  0.
   366  3.65  0.  0.
   367  3.66  0.  0.
   368  3.67  0.  0.
   369  3.68  0.  0.
   370  3.69  0.  0.
   371  3.70  0.  0.
   372  3.71  0.  0.
   373  3.72  0.  0.
   374  3.73  0.  0.
   375  3.74  0.  0.
   376  3.75  0.  0.
   377  3.76  0.  0.
   378  3.77  0.  0.
   379  3.78  0.  0.
   380  3.79  0.  0.
   381  3.80  0.  0.
   382  3.81  0.  0.
   383  3.82  0.  0.
   384  3.83  0.  0.
   385  3.84  0.  0.
   386  3.85  0.  0.
   387  3.86  0.  0.
   388  3.87  0.  0.
   389  3.88  0.  0.
   390  3.89  0.  0.
   391  3.90  0.  0.
   392  3.91  0.  0.
   393  3.92  0.  0.
   394  3.93  0.  0.
   395  3.94  0.  0.
   396  3.95  0.  0.
   397  3.96  0.  0.
   398  3.97  0.  0.
   399  3.98  0.  0.
   400  3.99  0.  0.
   401  4.00  0.  0.
   402  4.01  0.  0.
   403  4.02  0.  0.
   404  4.03  0.  0.
   405  4.04  0.  0.
   406  4.05  0.  0.
   407  4.06  0.  0.
   408  4.07  0.  0.
   409  4.08  0.  0.
   410  4.09  0.  0.
   411  4.10  0.  0.
   412  4.11  0.  0.
   413  4.12  0.  0.
   414  4.13  0.  0.
   415  4.14  0.  0.
   416  4.15  0.  0.
   417  4.16  0.  0.
   418  4.17  0.  0.
   419  4.18  0.  0.
   420  4.19  0.  0.
   421  4.20  0.  0.
   422  4.21  0.  0.
   423  4.22  0.  0.
   424  4.23  0.  0.
   425  4.24  0.  0.
   426  4.25  0.  0.
   427  4.26  0.  0.
   428  4.27  0.  0.
   429  4.28  0.  0.
   430  4.29  0.  0.
   431  4.30  0.  0.
   432  4.31  0.  0.
   433  4.32  0.  0.
   434  4.33  0.  0.
   435  4.34  0.  0.
   436  4.35  0.  0.
   437  4.36  0.  0.
   438  4.37  0.  0.
   439  4.38  0.  0.
   440  4.39  0.  0.
   441  4.40  0.  0.
   442  4.41  0.  0.
   443  4.42  0.  0.
   444  4.43  0.  0.
   445  4.44  0.  0.
   446  4.45  0.  0.
   447  4.46  0.  0.
   448  4.47  0.  0.
   449  4.48  0.  0.
   450  4.49  0.  0.
   451  4.50  0.  0.
   452  4.51  0.  0.
   453  4.52  0.  0.
   454  4.53  0.  0.
   455  4.54  0.  0.
   456  4.55  0.  0.
   457  4.56  0.  0.
   458  4.57  0.  0.
   459  4.58  0.  0.
   460  4.59  0.  0.
   461  4.60  0.  0.
   462  4.61  0.  0.
   463  4.62  0.  0.
   464  4.63  0.  0.
   465  4.64  0.  0.
   466  4.65  0.  0.
   467  4.66  0.  0.
   468  4.67  0.  0.
   469  4.68  0.  0.
   470  4.69  0.  0.
   471  4.70  0.  0.
   472  4.71  0.  0.
   473  4.72  0.  0.
   474  4.73  0.  0.
   475  4.74  0.  0.
   476  4.75  0.  0.
   477  4.76  0.  0.
   478  4.77  0.  0.
   479  4.78  0.  0.
   480  4.79  0.  0.
   481  4.80  0.  0.
   482  4.81  0.  0.
   483  4.82  0.  0.
   484  4.83  0.  0.
   485  4.84  0.  0.
   486  4.85  0.  0.
   487  4.86  0.  0.
   488  4.87  0.  0.
   489  4.88  0.  0.
   490  4.89  0.  0.
   491  4.90  0.  0.
   492  4.91  0.  0.
   493  4.92  0.  0.
   494  4.93  0.  0.
   495  4.94  0.  0.
   496  4.95  0.  0.
   497  4.96  0.  0.
   498  4.97  0.  0.
   499  4.98  0.  0.
   500  4.99  0.  0.
   501  5.00  0.  0.
   502  5.01  0.  0.
   503  5.02  0.  0.
   504  5.03  0.  0.
   505  5.04  0.  0.
   506  5.05  0.  0.
   507  5.06  0.  0.
   508  5.07  0.  0.
   509  5.08  0.  0.
   510  5.09  0.  0.
   511  5.10  0.  0.
   512  5.11  0.  0.
   513  5.12  0.  0.
   514  5.13  0.  0.
   515  5.14  0.  0.
   516  5.15  0.  0.
   517  5.16  0.  0.
   518  5.17  0.  0.
   519  5.18  0.  0.
   520  5.19  0.  0.
   521  5.20  0.  0.
   522  5.21  0.  0.
   523  5.22  0.  0.
   524  5.23  0.  0.
   525  5.24  0.  0.
   526  5.25  0.  0.
   527  5.26  0.  0.
   528  5.27  0.  0.
   529  5.28  0.  0.
   530  5.29  0.  0.
   531  5.30  0.  0.
   532  5.31  0.  0.
   533  5.32  0.  0.
   534  5.33  0.  0.
   535  5.34  0.  0.
   536  5.35  0.  0.
   537  5.36  0.  0.
   538  5.37  0.  0.
   539  5.38  0.  0.
   540  5.39  0.  0.
   541  5.40  0.  0.
   542  5.41  0.  0.
   543  5.42  0.  0.
   544  5.43  0.  0.
   545  5.44  0.  0.
   546  5.45  0.  0.
   547  5.46  0.  0.
   548  5.47  0.  0.
   549  5.48  0.  0.
   550  5.49  0.  0.
   551  5.50  0.  0.
   552  5.51  0.  0.
   553  5.52  0.  0.
   554  5.53  0.  0.
   555  5.54  0.  0.
   556  5.55  0.  0.
   557  5.56  0.  0.
   558  5.57  0.  0.
   559  5.58  0.  0.
   560  5.59  0.  0.
   561  5.60  0.  0.
   562  5.61  0.  0.
   563  5.62  0.  0.
   564  5.63  0.  0.
   565  5.64  0.  0.
   566  5.65  0.  0.
   567  5.66  0.  0.
   568  5.67  0.  0.
   569  5.68  0.  0.
   570  5.69  0.  0.
   571  5.70  0.  0.
   572  5.71  0.  0.
   573  5.72  0.  0.
   574  5.73  0.  0.
   575  5.74  0.  0.
   576  5.75  0.  0.
   577  5.76  0.  0.
   578  5.77  0.  0.
   579  5.78  0.  0.
   580  5.79  0.  0.
   581  5.80  0.  0.
   582  5.81  0.  0.
   583  5.82  0.  0.
   584  5.83  0.  0.
   585  5.84  0.  0.
   586  5.85  0.  0.
   587  5.86  0.  0.
   588  5.87  0.  0.
   589  5.88  0.  0.
   590  5.89  0.  0.
   591  5.90  0.  0.
   592  5.91  0.  0.
   593  5.92  0.  0.
   594  5.93  0.  0.
   595  5.94  0.  0.
   596  5.95  0.  0.
   597  5.96  0.  0.
   598  5.97  0.  0.
   599  5.98  0.  0.
   600  5.99  0.  0.
   1                         4.3401568329685E+00 -3.2907343327365E-01
     1  0.0000000000000E+00  2.9770670650908E-10  4.0356031016930E-10
     2  1.0000000000000E-02  1.6263136407851E-03  6.5223099718203E-04
     3  2.0000000000000E-02  6.4983004373468E-03  2.6047222195788E-03
     4  3.0000000000000E-02  1.4595128940160E-02  5.8448975214502E-03
     5  4.0000000000000E-02  2.5882183003549E-02  1.0351893650846E-02
     6  5.0000000000000E-02  4.0311215645975E-02  1.6096704985976E-02
     7  6.0000000000000E-02  5.7820563367610E-02  2.3042384671619E-02
     8  7.0000000000000E-02  7.8335419846001E-02  3.1144300675529E-02
     9  8.0000000000000E-02  1.0176816763293E-01  4.0350444881253E-02
    10  9.0000000000000E-02  1.2801876618600E-01  5.0601792945534E-02
    11  1.0000000000000E-01  1.5697519428850E-01  6.1832712277864E-02
    12  1.1000000000000E-01  1.8851394464221E-01  7.3971415149627E-02
    13  1.2000000000000E-01  2.2250056816198E-01  8.6940453613335E-02
    14  1.3000000000000E-01  2.5879026525909E-01  1.0065725261212E-01
    15  1.4000000000000E-01  2.9722852117420E-01  1.1503467738635E-01
    16  1.5000000000000E-01  3.3765178221146E-01  1.2998163104270E-01
    17  1.6000000000000E-01  3.7988816953404E-01  1.4540367794045E-01
    18  1.7000000000000E-01  4.2375822700913E-01  1.6120368837411E-01
    19  1.8000000000000E-01  4.6907569943807E-01  1.7728249989017E-01
    20  1.9000000000000E-01  5.1564833737605E-01  1.9353959047180E-01
    21  2.0000000000000E-01  5.6327872463555E-01  2.0987375875726E-01
    22  2.1000000000000E-01  6.1176512447961E-01  2.2618380642853E-01
    23  2.2000000000000E-01  6.6090234044539E-01  2.4236921791421E-01
    24  2.3000000000000E-01  7.1048258769521E-01  2.5833083259676E-01
    25  2.4000000000000E-01  7.6029637077181E-01  2.7397150479675E-01
    26  2.5000000000000E-01  8.1013336363654E-01  2.8919674692631E-01
    27  2.6000000000000E-01  8.5978328789406E-01  3.0391535135880E-01
    28  2.7000000000000E-01  9.0903678515356E-01  3.1803998675086E-01
    29  2.8000000000000E-01  9.5768627954477E-01  3.3148776477430E-01
    30  2.9000000000000E-01  1.0055268264966E+00  3.4418077346746E-01
    31  3.0000000000000E-01  1.0523569439953E+00  3.5604657369650E-01
    32  3.1000000000000E-01  1.0979794226694E+00  3.6701865552329E-01
    33  3.2000000000000E-01  1.1422021111928E+00  3.7703685160716E-01
    34  3.3000000000000E-01  1.1848386736678E+00  3.8604770511798E-01
    35  3.4000000000000E-01  1.2257093158231E+00  3.9400479000668E-01
    36  3.5000000000000E-01  1.2646414770648E+00  4.0086898186173E-01
    37  3.6000000000000E-01  1.3014704856221E+00  4.0660867797415E-01
    38  3.7000000000000E-01  1.3360401742533E+00  4.1119996563509E-01
    39  3.8000000000000E-01  1.3682034542064E+00  4.1462673809559E-01
    40  3.9000000000000E-01  1.3978228453728E+00  4.1688075802516E-01
    41  4.0000000000000E-01  1.4247709608150E+00  4.1796166870901E-01
    42  4.1000000000000E-01  1.4489309441053E+00  4.1787695362164E-01
    43  4.2000000000000E-01  1.4701968581694E+00  4.1664184540203E-01
    44  4.3000000000000E-01  1.4884740245854E+00  4.1427918563028E-01
    45  4.4000000000000E-01  1.5036793125502E+00  4.1081923716413E-01
    46  4.5000000000000E-01  1.5157413769831E+00  4.0629945113214E-01
    47  4.6000000000000E-01  1.5246008454927E+00  4.0076419099734E-01
    48  4.7000000000000E-01  1.5302104541825E+00  3.9426441639636E-01
    49  4.8000000000000E-01  1.5325351325199E+00  3.8685732972289E-01
    50  4.9000000000000E-01  1.5315520377282E+00  3.7860598865886E-01
    51  5.0000000000000E-01  1.5272505393942E+00  3.6957888805871E-01
    52  5.1000000000000E-01  1.5196321552018E+00  3.5984951476201E-01
    53  5.2000000000000E-01  1.5087104389133E+00  3.4949587904381E-01
    54  5.3000000000000E-01  1.4945108219169E+00  3.3860002651136E-01
    55  5.4000000000000E-01  1.4770704098422E+00  3.2724753431891E-01
    56  5.5000000000000E-01  1.4564377359182E+00  3.1552699559880E-01
    57  5.6000000000000E-01  1.4326724729038E+00  3.0352949599709E-01
    58  5.7000000000000E-01  1.4058451055618E+00  2.9134808615658E-01
    59  5.8000000000000E-01  1.3760365657756E+00  2.7907725390951E-01
    60  5.9000000000000E-01  1.3433378325153E+00  2.6681239982784E-01
    61  6.0000000000000E-01  1.3078494989578E+00  2.5464931963233E-01
    62  6.1000000000000E-01  1.2696813091435E+00  2.4268369678482E-01
    63  6.2000000000000E-01  1.2289516666148E+00  2.3101060838294E-01
    64  6.3000000000000E-01  1.1857871175312E+00  2.1972404724551E-01
    65  6.4000000000000E-01  1.1403218107879E+00  2.0891646282345E-01
    66  6.5000000000000E-01  1.0926969376850E+00  1.9867832329694E-01
    67  6.6000000000000E-01  1.0430601536962E+00  1.8909770092946E-01
    68  6.7000000000000E-01  9.9156498488060E-01  1.8025988244554E-01
    69  6.8000000000000E-01  9.3837022145855E-01  1.7224700588543E-01
    70  6.9000000000000E-01  8.8363930104013E-01  1.6513772507017E-01
    71  7.0000000000000E-01  8.2753968395189E-01  1.5900690248875E-01
    72  7.1000000000000E-01  7.7024222305495E-01  1.5392533109770E-01
    73  7.2000000000000E-01  7.1192053038562E-01  1.4995948520802E-01
    74  7.3000000000000E-01  6.5275034288134E-01  1.4717130032696E-01
    75  7.4000000000000E-01  5.9290888937865E-01  1.4561798152723E-01
    76  7.5000000000000E-01  5.3257426098988E-01  1.4535183963711E-01
    77  7.6000000000000E-01  4.7192478687937E-01  1.4642015428416E-01
    78  7.7000000000000E-01  4.1113841737248E-01  1.4886506258698E-01
    79  7.8000000000000E-01  3.5039211623951E-01  1.5272347207578E-01
    80  7.9000000000000E-01  2.8986126390529E-01  1.5802699623531E-01
    81  8.0000000000000E-01  2.2971907324307E-01  1.6480191090730E-01
    82  8.1000000000000E-01  1.7013601951995E-01  1.7306912966220E-01
    83  8.2000000000000E-01  1.1127928597095E-01  1.8284419615762E-01
    84  8.3000000000000E-01  5.3312226391031E-02  1.9413729144008E-01
    85  8.4000000000000E-01 -3.6061539511486E-03  2.0695325412124E-01
    86  8.5000000000000E-01 -5.9321697855722E-02  2.2129161136871E-01
    87  8.6000000000000E-01 -1.1368557504700E-01  2.3714661869459E-01
    88  8.7000000000000E-01 -1.6655473927270E-01  2.5450730660149E-01
    89  8.8000000000000E-01 -2.1779236264832E-01  2.7335753225545E-01
    90  8.9000000000000E-01 -2.6726824631404E-01  2.9367603449565E-01
    91  9.0000000000000E-01 -3.1485920653318E-01  3.1543649066020E-01
    92  9.1000000000000E-01 -3.6044943541909E-01  3.3860757390494E-01
    93  9.2000000000000E-01 -4.0393083553073E-01  3.6315300991238E-01
    94  9.3000000000000E-01 -4.4520332762758E-01  3.8903163213153E-01
    95  9.4000000000000E-01 -4.8417513092098E-01  4.1619743494933E-01
    96  9.5000000000000E-01 -5.2076301520320E-01  4.4459962447069E-01
    97  9.6000000000000E-01 -5.5489252427717E-01  4.7418266686994E-01
    98  9.7000000000000E-01 -5.8649817014999E-01  5.0488633457046E-01
    99  9.8000000000000E-01 -6.1552359749222E-01  5.3664575080540E-01
   100  9.9000000000000E-01 -6.4192171790382E-01  5.6939143340758E-01
   101  1.0000000000000E+00 -6.6565481356673E-01  6.0304933896692E-01
   102  1.0100000000000E+00 -6.8669460990423E-01  6.3754090877340E-01
   103  1.0200000000000E+00 -7.0502231690921E-01  6.7278311823085E-01
   104  1.0300000000000E+00 -7.2062863884805E-01  7.0868853167546E-01
   105  1.0400000000000E+00 -7.3351375209455E-01  7.4516536476063E-01
   106  1.0500000000000E+00 -7.4368725089987E-01  7.8211755677215E-01