Cd    ONCVPSP-4.0.1  r_core=   2.28653   2.19276   2.30025
     48.0000     20.0000      210704    zatom,zion,pspd
     8      11   2     4   600     0    pspcod,pspxc,lmax,lloc,mmax,r2well
  5.99000000  6.00000000  0.00000000    rchrg fchrg qchrg
     2     2     2     0     0    nproj
     1     1           extension_switch
   0                         2.7175902763163E+00 -2.0985407849057E-01
     1  0.0000000000000E+00 -4.0544789747798E-12  1.5664497476919E-11
     2  1.0000000000000E-02  6.0109788032198E-02  8.8258920666447E-03
     3  2.0000000000000E-02  1.2011156871593E-01  1.7669474541752E-02
     4  3.0000000000000E-02  1.7989756423771E-01  2.6548335870439E-02
     5  4.0000000000000E-02  2.3936045533627E-01  3.5479861190621E-02
     6  5.0000000000000E-02  2.9839360928522E-01  4.4481132224115E-02
     7  6.0000000000000E-02  3.5689130632649E-01  5.3568829010265E-02
     8  7.0000000000000E-02  4.1474896404270E-01  6.2759134077744E-02
     9  8.0000000000000E-02  4.7186335916093E-01  7.2067639634486E-02
    10  9.0000000000000E-02  5.2813284628520E-01  8.1509258336296E-02
    11  1.0000000000000E-01  5.8345757306105E-01  9.1098138171541E-02
    12  1.1000000000000E-01  6.3773969128279E-01  1.0084758197285E-01
    13  1.2000000000000E-01  6.9088356346185E-01  1.1076997203690E-01
    14  1.3000000000000E-01  7.4279596438401E-01  1.2087670030040E-01
    15  1.4000000000000E-01  7.9338627719303E-01  1.3117810448451E-01
    16  1.5000000000000E-01  8.4256668354943E-01  1.4168341058139E-01
    17  1.6000000000000E-01  8.9025234742532E-01  1.5240068201565E-01
    18  1.7000000000000E-01  9.3636159210882E-01  1.6333677577038E-01
    19  1.8000000000000E-01  9.8081607000614E-01  1.7449730572215E-01
    20  1.9000000000000E-01  1.0235409248438E+00  1.8588661338314E-01
    21  2.0000000000000E-01  1.0644649458898E+00  1.9750774620037E-01
    22  2.1000000000000E-01  1.1035207138291E+00  2.0936244351296E-01
    23  2.2000000000000E-01  1.1406447379472E+00  2.2145113021933E-01
    24  2.3000000000000E-01  1.1757775842928E+00  2.3377291815549E-01
    25  2.4000000000000E-01  1.2088639945124E+00  2.4632561513650E-01
    26  2.5000000000000E-01  1.2398529950671E+00  2.5910574156278E-01
    27  2.6000000000000E-01  1.2686979965678E+00  2.7210855444438E-01
    28  2.7000000000000E-01  1.2953568829803E+00  2.8532807864846E-01
    29  2.8000000000000E-01  1.3197920904826E+00  2.9875714512773E-01
    30  2.9000000000000E-01  1.3419706757734E+00  3.1238743584355E-01
    31  3.0000000000000E-01  1.3618643736602E+00  3.2620953505311E-01
    32  3.1000000000000E-01  1.3794496437771E+00  3.4021298658982E-01
    33  3.2000000000000E-01  1.3947077063103E+00  3.5438635672731E-01
    34  3.3000000000000E-01  1.4076245666345E+00  3.6871730218138E-01
    35  3.4000000000000E-01  1.4181910287903E+00  3.8319264277196E-01
    36  3.5000000000000E-01  1.4264026977609E+00  3.9779843823712E-01
    37  3.6000000000000E-01  1.4322599705317E+00  4.1252006866544E-01
    38  3.7000000000000E-01  1.4357680159490E+00  4.2734231799042E-01
    39  3.8000000000000E-01  1.4369367434168E+00  4.4224945997182E-01
    40  3.9000000000000E-01  1.4357807605041E+00  4.5722534607436E-01
    41  4.0000000000000E-01  1.4323193195608E+00  4.7225349464331E-01
    42  4.1000000000000E-01  1.4265762534711E+00  4.8731718077001E-01
    43  4.2000000000000E-01  1.4185799007010E+00  5.0239952623793E-01
    44  4.3000000000000E-01  1.4083630198250E+00  5.1748358894192E-01
    45  4.4000000000000E-01  1.3959626937475E+00  5.3255245117899E-01
    46  4.5000000000000E-01  1.3814202238606E+00  5.4758930621974E-01
    47  4.6000000000000E-01  1.3647810144089E+00  5.6257754258321E-01
    48  4.7000000000000E-01  1.3460944473600E+00  5.7750082545715E-01
    49  4.8000000000000E-01  1.3254137481052E+00  5.9234317472728E-01
    50  4.9000000000000E-01  1.3027958423418E+00  6.0708903910569E-01
    51  5.0000000000000E-01  1.2783012045143E+00  6.2172336587780E-01
    52  5.1000000000000E-01  1.2519936982156E+00  6.3623166582080E-01
    53  5.2000000000000E-01  1.2239404089746E+00  6.5060007288203E-01
    54  5.3000000000000E-01  1.1942114698773E+00  6.6481539824561E-01
    55  5.4000000000000E-01  1.1628798804922E+00  6.7886517845669E-01
    56  5.5000000000000E-01  1.1300213195897E+00  6.9273771731701E-01
    57  5.6000000000000E-01  1.0957139521648E+00  7.0642212131148E-01
    58  5.7000000000000E-01  1.0600382312904E+00  7.1990832837322E-01
    59  5.8000000000000E-01  1.0230766953436E+00  7.3318712984329E-01
    60  5.9000000000000E-01  9.8491376116318E-01  7.4625018553167E-01
    61  6.0000000000000E-01  9.4563551370816E-01  7.5909003183640E-01
    62  6.1000000000000E-01  9.0532949279913E-01  7.7170008292882E-01
    63  6.2000000000000E-01  8.6408447753334E-01  7.8407462506292E-01
    64  6.3000000000000E-01  8.2199026897137E-01  7.9620880411811E-01
    65  6.4000000000000E-01  7.7913747169932E-01  8.0809860653250E-01
    66  6.5000000000000E-01  7.3561727487352E-01  8.1974083383280E-01
    67  6.6000000000000E-01  6.9152123335643E-01  8.3113307101276E-01
    68  6.7000000000000E-01  6.4694104955164E-01  8.4227364905641E-01
    69  6.8000000000000E-01  6.0196835654334E-01  8.5316160194450E-01
    70  6.9000000000000E-01  5.5669450314080E-01  8.6379661852145E-01
    71  7.0000000000000E-01  5.1121034142136E-01  8.7417898963710E-01
    72  7.1000000000000E-01  4.6560601735663E-01  8.8430955101017E-01
    73  7.2000000000000E-01  4.1997076509554E-01  8.9418962229009E-01
    74  7.3000000000000E-01  3.7439270546452E-01  9.0382094282001E-01
    75  7.4000000000000E-01  3.2895864923021E-01  9.1320560462584E-01
    76  7.5000000000000E-01  2.8375390565276E-01  9.2234598317363E-01
    77  7.6000000000000E-01  2.3886209683890E-01  9.3124466645228E-01
    78  7.7000000000000E-01  1.9436497838289E-01  9.3990438294728E-01
    79  7.8000000000000E-01  1.5034226676096E-01  9.4832792907653E-01
    80  7.9000000000000E-01  1.0687147392024E-01  9.5651809666021E-01
    81  8.0000000000000E-01  6.4027749477605E-02  9.6447760099283E-01
    82  8.1000000000000E-01  2.1883730915948E-02  9.7220901007753E-01
    83  8.2000000000000E-01 -1.9490597863066E-02  9.7971467557060E-01
    84  8.3000000000000E-01 -6.0028039300914E-02  9.8699666596772E-01
    85  8.4000000000000E-01 -9.9664305961099E-02  9.9405670254309E-01
    86  8.5000000000000E-01 -1.3833813505949E-01  1.0008960985283E+00
    87  8.6000000000000E-01 -1.7599139351358E-01  1.0075157019900E+00
    88  8.7000000000000E-01 -2.1256917331171E-01  1.0139158428354E+00
    89  8.8000000000000E-01 -2.4801987703773E-01  1.0200962843372E+00
    90  8.9000000000000E-01 -2.8229529342084E-01  1.0260561795384E+00
    91  9.0000000000000E-01 -3.1535066281544E-01  1.0317940328512E+00
    92  9.1000000000000E-01 -3.4714473255033E-01  1.0373076671288E+00
    93  9.2000000000000E-01 -3.7763980212169E-01  1.0425941964426E+00
    94  9.3000000000000E-01 -4.0680175823827E-01  1.0476500047525E+00
    95  9.4000000000000E-01 -4.3460009976154E-01  1.0524707306166E+00
    96  9.5000000000000E-01 -4.6100795261673E-01  1.0570512580344E+00
    97  9.6000000000000E-01 -4.8600207478342E-01  1.0613857134795E+00
    98  9.7000000000000E-01 -5.0956285150588E-01  1.0654674691242E+00
    99  9.8000000000000E-01 -5.3167428089413E-01  1.0692891522206E+00
   100  9.9000000000000E-01 -5.5232395011612E-01  1.0728426605541E+00
   101  1.0000000000000E+00 -5.7150300240923E-01  1.0761191838454E+00
   102  1.0100000000000E+00 -5.8920609516641E-01  1.0791092309372E+00
   103  1.0200000000000E+00 -6.0543134937672E-01  1.0818026625618E+00
   104  1.0300000000000E+00 -6.2018029072389E-01  1.0841887294521E+00
   105  1.0400000000000E+00 -6.3345778266764E-01  1.0862561155262E+00
   106  1.0500000000000E+00 -6.4527195185258E-01  1.0879929858455E+00
   107  1.0600000000000E+00 -6.5563410620685E-01  1.0893870390210E+00
   108  1.0700000000000E+00 -6.6455864610867E-01  1.0904255637211E+00
   109  1.0800000000000E+00 -6.7206296901257E-01  1.0910954989160E+00
   110  1.0900000000000E+00 -6.7816736793856E-01  1.0913834974785E+00
   111  1.1000000000000E+00 -6.8289492423706E-01  1.0912759927544E+00
   112  1.1100000000000E+00 -6.8627139504983E-01  1.0907592677068E+00
   113  1.1200000000000E+00 -6.8832509589221E-01  1.0898195262395E+00
   114  1.1300000000000E+00 -6.8908677878527E-01  1.0884429663085E+00
   115  1.1400000000000E+00 -6.8858950636755E-01  1.0866158544363E+00
   116  1.1500000000000E+00 -6.8686852241507E-01  1.0843246012578E+00
   117  1.1600000000000E+00 -6.8396111919553E-01  1.0815558377397E+00
   118  1.1700000000000E+00 -6.7990650207769E-01  1.0782964917384E+00
   119  1.1800000000000E+00 -6.7474565181057E-01  1.0745338645830E+00
   120  1.1900000000000E+00 -6.6852118487858E-01  1.0702557073963E+00
   121  1.2000000000000E+00 -6.6127721232906E-01  1.0654502969005E+00
   122  1.2100000000000E+00 -6.5305919745704E-01  1.0601065104829E+00
   123  1.2200000000000E+00 -6.4391381271949E-01  1.0542139003375E+00
   124  1.2300000000000E+00 -6.3388879623722E-01  1.0477627665320E+00
   125  1.2400000000000E+00 -6.2303280822741E-01  1.0407442288929E+00
   126  1.2500000000000E+00 -6.1139528769373E-01  1.0331502976422E+00
   127  1.2600000000000E+00 -5.9902630968386E-01  1.0249739427591E+00
   128  1.2700000000000E+00 -5.8597644340696E-01  1.0162091620867E+00
   129  1.2800000000000E+00 -5.7229661148486E-01  1.0068510482438E+00
   130  1.2900000000000E+00 -5.5803795059277E-01  9.9689585444620E-01
   131  1.3000000000000E+00 -5.4325167372593E-01  9.8634105938440E-01
   132  1.3100000000000E+00 -5.2798893431012E-01  9.7518543134245E-01
   133  1.3200000000000E+00 -5.1230069235458E-01  9.6342909178605E-01
   134  1.3300000000000E+00 -4.9623758282753E-01  9.5107357868181E-01
   135  1.3400000000000E+00 -4.7984978641572E-01  9.3812190984584E-01
   136  1.3500000000000E+00 -4.6318690281176E-01  9.2457864665097E-01
   137  1.3600000000000E+00 -4.4629782665492E-01  9.1044995845100E-01
   138  1.3700000000000E+00 -4.2923062623499E-01  8.9574368810496E-01
   139  1.3800000000000E+00 -4.1203242505208E-01  8.8046941900594E-01
   140  1.3900000000000E+00 -3.9474928631031E-01  8.6463854403581E-01
   141  1.4000000000000E+00 -3.7742610040900E-01  8.4826433688054E-01
   142  1.4100000000000E+00 -3.6010647548149E-01  8.3136202614823E-01
   143  1.4200000000000E+00 -3.4283263101959E-01  8.1394887273652E-01
   144  1.4300000000000E+00 -3.2564529461045E-01  7.9604425089399E-01
   145  1.4400000000000E+00 -3.0858360180238E-01  7.7766973341505E-01
   146  1.4500000000000E+00 -2.9168499910751E-01  7.5884918139610E-01
   147  1.4600000000000E+00 -2.7498515014117E-01  7.3960883896591E-01
   148  1.4700000000000E+00 -2.5851784489145E-01  7.1997743338204E-01
   149  1.4800000000000E+00 -2.4231491210660E-01  6.9998628086092E-01
   150  1.4900000000000E+00 -2.2640613478404E-01  6.7966939847900E-01
   151  1.5000000000000E+00 -2.1081916874096E-01  6.5906362244927E-01
   152  1.5100000000000E+00 -1.9557946424447E-01  6.3820873303961E-01
   153  1.5200000000000E+00 -1.8071019067800E-01  6.1714758635782E-01
   154  1.5300000000000E+00 -1.6623216422000E-01  5.9592625318407E-01
   155  1.5400000000000E+00 -1.5216377851167E-01  5.7459416498309E-01
   156  1.5500000000000E+00 -1.3852093827234E-01  5.5320426729896E-01
   157  1.5600000000000E+00 -1.2531699668819E-01  5.3181317507090E-01
   158  1.5700000000000E+00 -1.1256268968452E-01  5.1048137480130E-01
   159  1.5800000000000E+00 -1.0026619635256E-01  4.8927263309233E-01
   160  1.5900000000000E+00 -8.8433835071874E-02  4.6824942359441E-01
   161  1.6000000000000E+00 -7.7070665167839E-02  4.4746931887455E-01
   162  1.6100000000000E+00 -6.6180556336822E-02  4.2698498483067E-01
   163  1.6200000000000E+00 -5.5766239172533E-02  4.0684429265980E-01
   164  1.6300000000000E+00 -4.5829350926896E-02  3.8709045669188E-01
   165  1.6400000000000E+00 -3.6370479247324E-02  3.6776217911829E-01
   166  1.6500000000000E+00 -2.7389204167327E-02  3.4889379999875E-01
   167  1.6600000000000E+00 -1.8884138327688E-02  3.3051545285350E-01
   168  1.6700000000000E+00 -1.0852965527496E-02  3.1265322537802E-01
   169  1.6800000000000E+00 -3.2924776911012E-03  2.9532932492290E-01
   170  1.6900000000000E+00  3.8013896347841E-03  2.7856224823134E-01
   171  1.7000000000000E+00  1.0433523129574E-02  2.6236695488704E-01
   172  1.7100000000000E+00  1.6609598779064E-02  2.4675504399758E-01
   173  1.7200000000000E+00  2.2336050050985E-02  2.3173493351548E-01
   174  1.7300000000000E+00  2.7620037025926E-02  2.1731204158462E-01
   175  1.7400000000000E+00  3.2469416349015E-02  2.0348896933314E-01
   176  1.7500000000000E+00  3.6892711856200E-02  1.9026568446437E-01
   177  1.7600000000000E+00  4.0899085738509E-02  1.7763970504704E-01
   178  1.7700000000000E+00  4.4498310087321E-02  1.6560628278481E-01
   179  1.7800000000000E+00  4.7700738692796E-02  1.5415858519531E-01
   180  1.7900000000000E+00  5.0517278955134E-02  1.4328787604521E-01
   181  1.8000000000000E+00  5.2959363763179E-02  1.3298369334578E-01
   182  1.8100000000000E+00  5.5038923228663E-02  1.2323402437710E-01
   183  1.8200000000000E+00  5.6768356138714E-02  1.1402547705117E-01
   184  1.8300000000000E+00  5.8160501028813E-02  1.0534344711333E-01
   185  1.8400000000000E+00  5.9228606758058E-02  9.7172280550878E-02
   186  1.8500000000000E+00  5.9986302497256E-02  8.9495430705217E-02
   187  1.8600000000000E+00  6.0447567053584E-02  8.2295609626504E-02
   188  1.8700000000000E+00  6.0626697452254E-02  7.5554933167786E-02
   189  1.8800000000000E+00  6.0538276716578E-02  6.9255059398364E-02
   190  1.8900000000000E+00  6.0197140808445E-02  6.3377319995456E-02
   191  1.9000000000000E+00  5.9618344695061E-02  5.7902844266745E-02
   192  1.9100000000000E+00  5.8817127520513E-02  5.2812675496018E-02
   193  1.9200000000000E+00  5.7808876887743E-02  4.8087879415747E-02
   194  1.9300000000000E+00  5.6609092255873E-02  4.3709644583122E-02
   195  1.9400000000000E+00  5.5233347490213E-02  3.9659374575126E-02
   196  1.9500000000000E+00  5.3697252597558E-02  3.5918771872747E-02
   197  1.9600000000000E+00  5.2016414706718E-02  3.2469913420367E-02
   198  1.9700000000000E+00  5.0206398369363E-02  2.9295317901854E-02
   199  1.9800000000000E+00  4.8282685263932E-02  2.6378004795475E-02
   200  1.9900000000000E+00  4.6260633397403E-02  2.3701545313729E-02
   201  2.0000000000000E+00  4.4155435917809E-02  2.1250105410018E-02
   202  2.0100000000000E+00  4.1982079666975E-02  1.9008481102517E-02
   203  2.0200000000000E+00  3.9755303595240E-02  1.6962126319963E-02
   204  2.0300000000000E+00  3.7489557190237E-02  1.5097173613931E-02
   205  2.0400000000000E+00  3.5198959071146E-02  1.3400448074608E-02
   206  2.0500000000000E+00  3.2897255902502E-02  1.1859474797866E-02
   207  2.0600000000000E+00  3.0597781806128E-02  1.0462480369250E-02
   208  2.0700000000000E+00  2.8313418433629E-02  9.1983887560212E-03
   209  2.0800000000000E+00  2.6056555875289E-02  8.0568120681325E-03
   210  2.0900000000000E+00  2.3839054590654E-02  7.0280367010136E-03
   211  2.1000000000000E+00  2.1672208540912E-02  6.1030053585843E-03
   212  2.1100000000000E+00  1.9566709692991E-02  5.2732954199557E-03
   213  2.1200000000000E+00  1.7532614081659E-02  4.5310942033003E-03
   214  2.1300000000000E+00  1.5579309613521E-02  3.8691731349170E-03
   215  2.1400000000000E+00  1.3715485735186E-02  3.2808519270756E-03
   216  2.1500000000000E+00  1.1949105144032E-02  2.7599658392185E-03
   217  2.1600000000000E+00  1.0287378530588E-02  2.3008906138599E-03
   218  2.1700000000000E+00  8.7367380174268E-03  1.8983649775928E-03
   219  2.1800000000000E+00  7.3028146509215E-03  1.5459425452355E-03
   220  2.1900000000000E+00  5.9904277248102E-03  1.2364394468812E-03
   221  2.2000000000000E+00  4.8035895943455E-03  9.6724212333568E-04
   222  2.2100000000000E+00  3.7454604860537E-03  7.3625234879067E-04
   223  2.2200000000000E+00  2.8183348513761E-03  5.4116710201966E-04
   224  2.2300000000000E+00  2.0236399836983E-03  3.7979549861312E-04
   225  2.2400000000000E+00  1.3619330898279E-03  2.4998315399710E-04
   226  2.2500000000000E+00  8.3309949120889E-04  1.4963925504717E-04
   227  2.2600000000000E+00  4.3517011330665E-04  7.6544669757945E-05
   228  2.2700000000000E+00  1.6617888376969E-04  2.8654154709616E-05
   229  2.2800000000000E+00  3.1049647560419E-05  5.2493359422192E-06
   230  2.2900000000000E+00 -4.9759842911054E-06 -8.1833095620212E-07
   231  2.3000000000000E+00 -2.0315020665626E-07 -3.3212888548188E-08
   232  2.31  0.  0.
   233  2.32 -0. -0.
   234  2.33  0. -0.
   235  2.34  0. -0.
   236  2.35  0.  0.
   237  2.36  0.  0.
   238  2.37  0.  0.
   239  2.38  0.  0.
   240  2.39  0.  0.
   241  2.40  0.  0.
   242  2.41  0.  0.
   243  2.42  0.  0.
   244  2.43  0.  0.
   245  2.44  0.  0.
   246  2.45  0.  0.
   247  2.46  0.  0.
   248  2.47  0.  0.
   249  2.48  0.  0.
   250  2.49  0.  0.
   251  2.50  0.  0.
   252  2.51  0.  0.
   253  2.52  0.  0.
   254  2.53  0.  0.
   255  2.54  0.  0.
   256  2.55  0.  0.
   257  2.56  0.  0.
   258  2.57  0.  0.
   259  2.58  0.  0.
   260  2.59  0.  0.
   261  2.60  0.  0.
   262  2.61  0.  0.
   263  2.62  0.  0.
   264  2.63  0.  0.
   265  2.64  0.  0.
   266  2.65  0.  0.
   267  2.66  0.  0.
   268  2.67  0.  0.
   269  2.68  0.  0.
   270  2.69  0.  0.
   271  2.70  0.  0.
   272  2.71  0.  0.
   273  2.72  0.  0.
   274  2.73  0.  0.
   275  2.74  0.  0.
   276  2.75  0.  0.
   277  2.76  0.  0.
   278  2.77  0.  0.
   279  2.78  0.  0.
   280  2.79  0.  0.
   281  2.80  0.  0.
   282  2.81  0.  0.
   283  2.82  0.  0.
   284  2.83  0.  0.
   285  2.84  0.  0.
   286  2.85  0.  0.
   287  2.86  0.  0.
   288  2.87  0.  0.
   289  2.88  0.  0.
   290  2.89  0.  0.
   291  2.90  0.  0.
   292  2.91  0.  0.
   293  2.92  0.  0.
   294  2.93  0.  0.
   295  2.94  0.  0.
   296  2.95  0.  0.
   297  2.96  0.  0.
   298  2.97  0.  0.
   299  2.98  0.  0.
   300  2.99  0.  0.
   301  3.00  0.  0.
   302  3.01  0.  0.
   303  3.02  0.  0.
   304  3.03  0.  0.
   305  3.04  0.  0.
   306  3.05  0.  0.
   307  3.06  0.  0.
   308  3.07  0.  0.
   309  3.08  0.  0.
   310  3.09  0.  0.
   311  3.10  0.  0.
   312  3.11  0.  0.
   313  3.12  0.  0.
   314  3.13  0.  0.
   315  3.14  0.  0.
   316  3.15  0.  0.
   317  3.16  0.  0.
   318  3.17  0.  0.
   319  3.18  0.  0.
   320  3.19  0.  0.
   321  3.20  0.  0.
   322  3.21  0.  0.
   323  3.22  0.  0.
   324  3.23  0.  0.
   325  3.24  0.  0.
   326  3.25  0.  0.
   327  3.26  0.  0.
   328  3.27  0.  0.
   329  3.28  0.  0.
   330  3.29  0.  0.
   331  3.30  0.  0.
   332  3.31  0.  0.
   333  3.32  0.  0.
   334  3.33  0.  0.
   335  3.34  0.  0.
   336  3.35  0.  0.
   337  3.36  0.  0.
   338  3.37  0.  0.
   339  3.38  0.  0.
   340  3.39  0.  0.
   341  3.40  0.  0.
   342  3.41  0.  0.
   343  3.42  0.  0.
   344  3.43  0.  0.
   345  3.44  0.  0.
   346  3.45  0.  0.
   347  3.46  0.  0.
   348  3.47  0.  0.
   349  3.48  0.  0.
   350  3.49  0.  0.
   351  3.50  0.  0.
   352  3.51  0.  0.
   353  3.52  0.  0.
   354  3.53  0.  0.
   355  3.54  0.  0.
   356  3.55  0.  0.
   357  3.56  0.  0.
   358  3.57  0.  0.
   359  3.58  0.  0.
   360  3.59  0.  0.
   361  3.60  0.  0.
   362  3.61  0.  0.
   363  3.62  0.  0.
   364  3.63  0.  0.
   365  3.64  0.  0.
   366  3.65  0.  0.
   367  3.66  0.  0.
   368  3.67  0.  0.
   369  3.68  0.  0.
   370  3.69  0.  0.
   371  3.70  0.  0.
   372  3.71  0.  0.
   373  3.72  0.  0.
   374  3.73  0.  0.
   375  3.74  0.  0.
   376  3.75  0.  0.
   377  3.76  0.  0.
   378  3.77  0.  0.
   379  3.78  0.  0.
   380  3.79  0.  0.
   381  3.80  0.  0.
   382  3.81  0.  0.
   383  3.82  0.  0.
   384  3.83  0.  0.
   385  3.84  0.  0.
   386  3.85  0.  0.
   387  3.86  0.  0.
   388  3.87  0.  0.
   389  3.88  0.  0.
   390  3.89  0.  0.
   391  3.90  0.  0.
   392  3.91  0.  0.
   393  3.92  0.  0.
   394  3.93  0.  0.
   395  3.94  0.  0.
   396  3.95  0.  0.
   397  3.96  0.  0.
   398  3.97  0.  0.
   399  3.98  0.  0.
   400  3.99  0.  0.
   401  4.00  0.  0.
   402  4.01  0.  0.
   403  4.02  0.  0.
   404  4.03  0.  0.
   405  4.04  0.  0.
   406  4.05  0.  0.
   407  4.06  0.  0.
   408  4.07  0.  0.
   409  4.08  0.  0.
   410  4.09  0.  0.
   411  4.10  0.  0.
   412  4.11  0.  0.
   413  4.12  0.  0.
   414  4.13  0.  0.
   415  4.14  0.  0.
   416  4.15  0.  0.
   417  4.16  0.  0.
   418  4.17  0.  0.
   419  4.18  0.  0.
   420  4.19  0.  0.
   421  4.20  0.  0.
   422  4.21  0.  0.
   423  4.22  0.  0.
   424  4.23  0.  0.
   425  4.24  0.  0.
   426  4.25  0.  0.
   427  4.26  0.  0.
   428  4.27  0.  0.
   429  4.28  0.  0.
   430  4.29  0.  0.
   431  4.30  0.  0.
   432  4.31  0.  0.
   433  4.32  0.  0.
   434  4.33  0.  0.
   435  4.34  0.  0.
   436  4.35  0.  0.
   437  4.36  0.  0.
   438  4.37  0.  0.
   439  4.38  0.  0.
   440  4.39  0.  0.
   441  4.40  0.  0.
   442  4.41  0.  0.
   443  4.42  0.  0.
   444  4.43  0.  0.
   445  4.44  0.  0.
   446  4.45  0.  0.
   447  4.46  0.  0.
   448  4.47  0.  0.
   449  4.48  0.  0.
   450  4.49  0.  0.
   451  4.50  0.  0.
   452  4.51  0.  0.
   453  4.52  0.  0.
   454  4.53  0.  0.
   455  4.54  0.  0.
   456  4.55  0.  0.
   457  4.56  0.  0.
   458  4.57  0.  0.
   459  4.58  0.  0.
   460  4.59  0.  0.
   461  4.60  0.  0.
   462  4.61  0.  0.
   463  4.62  0.  0.
   464  4.63  0.  0.
   465  4.64  0.  0.
   466  4.65  0.  0.
   467  4.66  0.  0.
   468  4.67  0.  0.
   469  4.68  0.  0.
   470  4.69  0.  0.
   471  4.70  0.  0.
   472  4.71  0.  0.
   473  4.72  0.  0.
   474  4.73  0.  0.
   475  4.74  0.  0.
   476  4.75  0.  0.
   477  4.76  0.  0.
   478  4.77  0.  0.
   479  4.78  0.  0.
   480  4.79  0.  0.
   481  4.80  0.  0.
   482  4.81  0.  0.
   483  4.82  0.  0.
   484  4.83  0.  0.
   485  4.84  0.  0.
   486  4.85  0.  0.
   487  4.86  0.  0.
   488  4.87  0.  0.
   489  4.88  0.  0.
   490  4.89  0.  0.
   491  4.90  0.  0.
   492  4.91  0.  0.
   493  4.92  0.  0.
   494  4.93  0.  0.
   495  4.94  0.  0.
   496  4.95  0.  0.
   497  4.96  0.  0.
   498  4.97  0.  0.
   499  4.98  0.  0.
   500  4.99  0.  0.
   501  5.00  0.  0.
   502  5.01  0.  0.
   503  5.02  0.  0.
   504  5.03  0.  0.
   505  5.04  0.  0.
   506  5.05  0.  0.
   507  5.06  0.  0.
   508  5.07  0.  0.
   509  5.08  0.  0.
   510  5.09  0.  0.
   511  5.10  0.  0.
   512  5.11  0.  0.
   513  5.12  0.  0.
   514  5.13  0.  0.
   515  5.14  0.  0.
   516  5.15  0.  0.
   517  5.16  0.  0.
   518  5.17  0.  0.
   519  5.18  0.  0.
   520  5.19  0.  0.
   521  5.20  0.  0.
   522  5.21  0.  0.
   523  5.22  0.  0.
   524  5.23  0.  0.
   525  5.24  0.  0.
   526  5.25  0.  0.
   527  5.26  0.  0.
   528  5.27  0.  0.
   529  5.28  0.  0.
   530  5.29  0.  0.
   531  5.30  0.  0.
   532  5.31  0.  0.
   533  5.32  0.  0.
   534  5.33  0.  0.
   535  5.34  0.  0.
   536  5.35  0.  0.
   537  5.36  0.  0.
   538  5.37  0.  0.
   539  5.38  0.  0.
   540  5.39  0.  0.
   541  5.40  0.  0.
   542  5.41  0.  0.
   543  5.42  0.  0.
   544  5.43  0.  0.
   545  5.44  0.  0.
   546  5.45  0.  0.
   547  5.46  0.  0.
   548  5.47  0.  0.
   549  5.48  0.  0.
   550  5.49  0.  0.
   551  5.50  0.  0.
   552  5.51  0.  0.
   553  5.52  0.  0.
   554  5.53  0.  0.
   555  5.54  0.  0.
   556  5.55  0.  0.
   557  5.56  0.  0.
   558  5.57  0.  0.
   559  5.58  0.  0.
   560  5.59  0.  0.
   561  5.60  0.  0.
   562  5.61  0.  0.
   563  5.62  0.  0.
   564  5.63  0.  0.
   565  5.64  0.  0.
   566  5.65  0.  0.
   567  5.66  0.  0.
   568  5.67  0.  0.
   569  5.68  0.  0.
   570  5.69  0.  0.
   571  5.70  0.  0.
   572  5.71  0.  0.
   573  5.72  0.  0.
   574  5.73  0.  0.
   575  5.74  0.  0.
   576  5.75  0.  0.
   577  5.76  0.  0.
   578  5.77  0.  0.
   579  5.78  0.  0.
   580  5.79  0.  0.
   581  5.80  0.  0.
   582  5.81  0.  0.
   583  5.82  0.  0.
   584  5.83  0.  0.
   585  5.84  0.  0.
   586  5.85  0.  0.
   587  5.86  0.  0.
   588  5.87  0.  0.
   589  5.88  0.  0.
   590  5.89  0.  0.
   591  5.90  0.  0.
   592  5.91  0.  0.
   593  5.92  0.  0.
   594  5.93  0.  0.
   595  5.94  0.  0.
   596  5.95  0.  0.
   597  5.96  0.  0.
   598  5.97  0.  0.
   599  5.98  0.  0.
   600  5.99  0.  0.
   1                        -1.3070189909382E+00 -5.2177825703789E-01
     1  0.0000000000000E+00 -1.4984904983528E-10  2.1710577779999E-10
     2  1.0000000000000E-02 -5.0642857709199E-04  1.3789433645798E-03
     3  2.0000000000000E-02 -2.0220739414454E-03  5.5095326050098E-03
     4  3.0000000000000E-02 -4.5360324475121E-03  1.2373072109820E-02
     5  4.0000000000000E-02 -8.0301894591926E-03  2.1938492242696E-02
     6  5.0000000000000E-02 -1.2479306238162E-02  3.4162483524891E-02
     7  6.0000000000000E-02 -1.7851141046032E-02  4.8989683708602E-02
     8  7.0000000000000E-02 -2.4106603921733E-02  6.6352916963338E-02
     9  8.0000000000000E-02 -3.1199944445616E-02  8.6173484180150E-02
    10  9.0000000000000E-02 -3.9078971655082E-02  1.0836150318598E-01
    11  1.0000000000000E-01 -4.7685305133383E-02  1.3281629745245E-01
    12  1.1000000000000E-01 -5.6954656154434E-02  1.5942683168102E-01
    13  1.2000000000000E-01 -6.6817137632660E-02  1.8807219245139E-01
    14  1.3000000000000E-01 -7.7197601498427E-02  2.1862211193106E-01
    15  1.4000000000000E-01 -8.8016001997363E-02  2.5093753246457E-01
    16  1.5000000000000E-01 -9.9187783296066E-02  2.8487120968909E-01
    17  1.6000000000000E-01 -1.1062428966817E-01  3.2026835166165E-01
    18  1.7000000000000E-01 -1.2223319643353E-01  3.5696729133139E-01
    19  1.8000000000000E-01 -1.3391895973035E-01  3.9480018954945E-01
    20  1.9000000000000E-01 -1.4558328311534E-01  4.3359376567982E-01
    21  2.0000000000000E-01 -1.5712559891105E-01  4.7317005275602E-01
    22  2.1000000000000E-01 -1.6844356215286E-01  5.1334717402383E-01
    23  2.2000000000000E-01 -1.7943355493031E-01  5.5394013761680E-01
    24  2.3000000000000E-01 -1.8999119887019E-01  5.9476164603187E-01
    25  2.4000000000000E-01 -2.0001187347000E-01  6.3562291700581E-01
    26  2.5000000000000E-01 -2.0939123796299E-01  6.7633451234032E-01
    27  2.6000000000000E-01 -2.1802575437758E-01  7.1670717118469E-01
    28  2.7000000000000E-01 -2.2581320944624E-01  7.5655264425955E-01
    29  2.8000000000000E-01 -2.3265323302104E-01  7.9568452549440E-01
    30  2.9000000000000E-01 -2.3844781066578E-01  8.3391907755430E-01
    31  3.0000000000000E-01 -2.4310178811687E-01  8.7107604774832E-01
    32  3.1000000000000E-01 -2.4652336533778E-01  9.0697947084341E-01
    33  3.2000000000000E-01 -2.4862457793406E-01  9.4145845535209E-01
    34  3.3000000000000E-01 -2.4932176374811E-01  9.7434794992121E-01
    35  3.4000000000000E-01 -2.4853601251415E-01  1.0054894865214E+00
    36  3.5000000000000E-01 -2.4619359652436E-01  1.0347318972216E+00
    37  3.6000000000000E-01 -2.4222638033654E-01  1.0619320014337E+00
    38  3.7000000000000E-01 -2.3657220764185E-01  1.0869552606190E+00
    39  3.8000000000000E-01 -2.2917526350671E-01  1.1096763975786E+00
    40  3.9000000000000E-01 -2.1998641030734E-01  1.1299799775770E+00
    41  4.0000000000000E-01 -2.0896349578592E-01  1.1477609487028E+00
    42  4.1000000000000E-01 -1.9607163177588E-01  1.1629251390210E+00
    43  4.2000000000000E-01 -1.8128344226751E-01  1.1753897082449E+00
    44  4.3000000000000E-01 -1.6457927961570E-01  1.1850835518297E+00
    45  4.4000000000000E-01 -1.4594740782669E-01  1.1919476555790E+00
    46  4.5000000000000E-01 -1.2538415200101E-01  1.1959353990494E+00
    47  4.6000000000000E-01 -1.0289401315395E-01  1.1970128062426E+00
    48  4.7000000000000E-01 -7.8489747782957E-02  1.1951587422855E+00
    49  4.8000000000000E-01 -5.2192411701879E-02  1.1903650550142E+00
    50  4.9000000000000E-01 -2.4031367815368E-02  1.1826366606023E+00
    51  5.0000000000000E-01  5.9557423385123E-03  1.1719915726007E+00
    52  5.1000000000000E-01  3.7723063293538E-02  1.1584608739885E+00
    53  5.2000000000000E-01  7.1216626468059E-02  1.1420886320687E+00
    54  5.3000000000000E-01  1.0637448678879E-01  1.1229317562828E+00
    55  5.4000000000000E-01  1.4312689467392E-01  1.1010597992544E+00
    56  5.5000000000000E-01  1.8139650277003E-01  1.0765547016145E+00
    57  5.6000000000000E-01  2.2109860668563E-01  1.0495104814002E+00
    58  5.7000000000000E-01  2.6214141881539E-01  1.0200328690586E+00
    59  5.8000000000000E-01  3.0442637420345E-01  9.8823888932270E-01
    60  5.9000000000000E-01  3.4784846725304E-01  9.5425639146247E-01
    61  6.0000000000000E-01  3.9229661795236E-01  9.1822352964371E-01
    62  6.1000000000000E-01  4.3765406615539E-01  8.8028819535252E-01
    63  6.2000000000000E-01  4.8379879233025E-01  8.4060740406386E-01
    64  6.3000000000000E-01  5.3060396306791E-01  7.9934663854574E-01
    65  6.4000000000000E-01  5.7793839953181E-01  7.5667915139580E-01
    66  6.5000000000000E-01  6.2566706692278E-01  7.1278522960489E-01
    67  6.6000000000000E-01  6.7365158293688E-01  6.6785142412929E-01
    68  6.7000000000000E-01  7.2175074310366E-01  6.2206974763074E-01
    69  6.8000000000000E-01  7.6982106081231E-01  5.7563684370948E-01
    70  6.9000000000000E-01  8.1771731976114E-01  5.2875313110918E-01
    71  7.0000000000000E-01  8.6529313650418E-01  4.8162192651334E-01
    72  7.1000000000000E-01  9.1240153071580E-01  4.3444854967997E-01
    73  7.2000000000000E-01  9.5889550075249E-01  3.8743941477329E-01
    74  7.3000000000000E-01  1.0046286020586E+00  3.4080111184809E-01
    75  7.4000000000000E-01  1.0494555259416E+00  2.9473948252342E-01
    76  7.5000000000000E-01  1.0932326762312E+00  2.4945869394604E-01
    77  7.6000000000000E-01  1.1358187413373E+00  2.0516031519057E-01
    78  7.7000000000000E-01  1.1770752592328E+00  1.6204240027218E-01
    79  7.8000000000000E-01  1.2168671729074E+00  1.2029858195801E-01
    80  7.9000000000000E-01  1.2550633738740E+00  8.0117180554449E-02