In    ONCVPSP-4.0.1  r_core=   3.07550   3.07550   2.50948
     49.0000     13.0000      220731    zatom,zion,pspd
     8      11   2     4   600     0    pspcod,pspxc,lmax,lloc,mmax,r2well
  5.99000000  5.00000000  0.00000000    rchrg fchrg qchrg
     2     2     2     0     0    nproj
     1     1           extension_switch
   0                         4.6291542561862E+00  4.4552317461793E-01
     1  0.0000000000000E+00  3.6308733797341E-12 -1.1549667472410E-11
     2  1.0000000000000E-02  1.4059494560258E-02 -3.4797872725554E-03
     3  2.0000000000000E-02  2.8128550204622E-02 -6.9784050701391E-03
     4  3.0000000000000E-02  4.2216676271248E-02 -1.0514566762654E-02
     5  4.0000000000000E-02  5.6333278815879E-02 -1.4106751993107E-02
     6  5.0000000000000E-02  7.0487609493442E-02 -1.7773091269580E-02
     7  6.0000000000000E-02  8.4688715064431E-02 -2.1531252295531E-02
     8  7.0000000000000E-02  9.8945387730065E-02 -2.5398328604198E-02
     9  8.0000000000000E-02  1.1326611649657E-01 -2.9390731051315E-02
    10  9.0000000000000E-02  1.2765903976438E-01 -3.3524082705965E-02
    11  1.0000000000000E-01  1.4213189933276E-01 -3.7813117662222E-02
    12  1.1000000000000E-01  1.5669199600396E-01 -4.2271584274591E-02
    13  1.2000000000000E-01  1.7134614696428E-01 -4.6912153297770E-02
    14  1.3000000000000E-01  1.8610064511124E-01 -5.1746331386779E-02
    15  1.4000000000000E-01  2.0096122048791E-01 -5.6784380386233E-02
    16  1.5000000000000E-01  2.1593300397587E-01 -6.2035242808459E-02
    17  1.6000000000000E-01  2.3102049338864E-01 -6.7506473868878E-02
    18  1.7000000000000E-01  2.4622752209671E-01 -7.3204180413935E-02
    19  1.8000000000000E-01  2.6155723030435E-01 -7.9132967042079E-02
    20  1.9000000000000E-01  2.7701203908663E-01 -8.5295889681828E-02
    21  2.0000000000000E-01  2.9259362728331E-01 -9.1694416853402E-02
    22  2.1000000000000E-01  3.0830291133333E-01 -9.8328398801305E-02
    23  2.2000000000000E-01  3.2414002812130E-01 -1.0519604464557E-01
    24  2.3000000000000E-01  3.4010432089392E-01 -1.1229390765869E-01
    25  2.4000000000000E-01  3.5619432829112E-01 -1.1961687873400E-01
    26  2.5000000000000E-01  3.7240777652304E-01 -1.2715818806983E-01
    27  2.6000000000000E-01  3.8874157471051E-01 -1.3490941505213E-01
    28  2.7000000000000E-01  4.0519181339287E-01 -1.4286050627644E-01
    29  2.8000000000000E-01  4.2175376619356E-01 -1.5099980160914E-01
    30  2.9000000000000E-01  4.3842189461995E-01 -1.5931406814660E-01
    31  3.0000000000000E-01  4.5518985596092E-01 -1.6778854189138E-01
    32  3.1000000000000E-01  4.7205051423225E-01 -1.7640697692490E-01
    33  3.2000000000000E-01  4.8899595410700E-01 -1.8515170181849E-01
    34  3.3000000000000E-01  5.0601749775540E-01 -1.9400368298758E-01
    35  3.4000000000000E-01  5.2310572450684E-01 -2.0294259465893E-01
    36  3.5000000000000E-01  5.4025049323451E-01 -2.1194689508752E-01
    37  3.6000000000000E-01  5.5744096735213E-01 -2.2099390862764E-01
    38  3.7000000000000E-01  5.7466564230165E-01 -2.3005991323400E-01
    39  3.8000000000000E-01  5.9191237540061E-01 -2.3912023294085E-01
    40  3.9000000000000E-01  6.0916841790858E-01 -2.4814933484273E-01
    41  4.0000000000000E-01  6.2642044916335E-01 -2.5712093007802E-01
    42  4.1000000000000E-01  6.4365461262963E-01 -2.6600807829673E-01
    43  4.2000000000000E-01  6.6085655369612E-01 -2.7478329507747E-01
    44  4.3000000000000E-01  6.7801145905008E-01 -2.8341866174417E-01
    45  4.4000000000000E-01  6.9510409745354E-01 -2.9188593702243E-01
    46  4.5000000000000E-01  7.1211886174048E-01 -3.0015666996725E-01
    47  4.6000000000000E-01  7.2903981185077E-01 -3.0820231358901E-01
    48  4.7000000000000E-01  7.4585071871382E-01 -3.1599433860292E-01
    49  4.8000000000000E-01  7.6253510879340E-01 -3.2350434672827E-01
    50  4.9000000000000E-01  7.7907630910371E-01 -3.3070418296854E-01
    51  5.0000000000000E-01  7.9545749250769E-01 -3.3756604631127E-01
    52  5.1000000000000E-01  8.1166172310866E-01 -3.4406259829658E-01
    53  5.2000000000000E-01  8.2767200154936E-01 -3.5016706891803E-01
    54  5.3000000000000E-01  8.4347131003449E-01 -3.5585335933552E-01
    55  5.4000000000000E-01  8.5904265689747E-01 -3.6109614089993E-01
    56  5.5000000000000E-01  8.7436912053620E-01 -3.6587095001166E-01
    57  5.6000000000000E-01  8.8943389254877E-01 -3.7015427836038E-01
    58  5.7000000000000E-01  9.0422031990598E-01 -3.7392365812094E-01
    59  5.8000000000000E-01  9.1871194600521E-01 -3.7715774171065E-01
    60  5.9000000000000E-01  9.3289255045778E-01 -3.7983637574533E-01
    61  6.0000000000000E-01  9.4674618747088E-01 -3.8194066886597E-01
    62  6.1000000000000E-01  9.6025722269433E-01 -3.8345305314439E-01
    63  6.2000000000000E-01  9.7341036841254E-01 -3.8435733881360E-01
    64  6.3000000000000E-01  9.8619071697238E-01 -3.8463876210879E-01
    65  6.4000000000000E-01  9.9858377234877E-01 -3.8428402604468E-01
    66  6.5000000000000E-01  1.0105754797612E+00 -3.8328133399703E-01
    67  6.6000000000000E-01  1.0221522532662E+00 -3.8162041599847E-01
    68  6.7000000000000E-01  1.0333010012628E+00 -3.7929254770128E-01
    69  6.8000000000000E-01  1.0440091498603E+00 -3.7629056200322E-01
    70  6.9000000000000E-01  1.0542646640706E+00 -3.7260885337541E-01
    71  7.0000000000000E-01  1.0640560667983E+00 -3.6824337497395E-01
    72  7.1000000000000E-01  1.0733724556176E+00 -3.6319162865947E-01
    73  7.2000000000000E-01  1.0822035173328E+00 -3.5745264809013E-01
    74  7.3000000000000E-01  1.0905395403363E+00 -3.5102697509388E-01
    75  7.4000000000000E-01  1.0983714247864E+00 -3.4391662956528E-01
    76  7.5000000000000E-01  1.1056906906423E+00 -3.3612507316926E-01
    77  7.6000000000000E-01  1.1124894836006E+00 -3.2765716717055E-01
    78  7.7000000000000E-01  1.1187605789953E+00 -3.1851912474052E-01
    79  7.8000000000000E-01  1.1244973837259E+00 -3.0871845812581E-01
    80  7.9000000000000E-01  1.1296939362960E+00 -2.9826392109088E-01
    81  8.0000000000000E-01  1.1343449050477E+00 -2.8716544707424E-01
    82  8.1000000000000E-01  1.1384455846898E+00 -2.7543408352108E-01
    83  8.2000000000000E-01  1.1419918912244E+00 -2.6308192287573E-01
    84  8.3000000000000E-01  1.1449803553839E+00 -2.5012203073547E-01
    85  8.4000000000000E-01  1.1474081146951E+00 -2.3656837168045E-01
    86  8.5000000000000E-01  1.1492729042967E+00 -2.2243573330648E-01
    87  8.6000000000000E-01  1.1505730466357E+00 -2.0773964899420E-01
    88  8.7000000000000E-01  1.1513074401765E+00 -1.9249631995226E-01
    89  8.8000000000000E-01  1.1514755472558E+00 -1.7672253707275E-01
    90  8.9000000000000E-01  1.1510773812208E+00 -1.6043560313335E-01
    91  9.0000000000000E-01  1.1501134929867E+00 -1.4365325587470E-01
    92  9.1000000000000E-01  1.1485849571507E+00 -1.2639359247017E-01
    93  9.2000000000000E-01  1.1464933577976E+00 -1.0867499589233E-01
    94  9.3000000000000E-01  1.1438407741313E+00 -9.0516063662071E-02
    95  9.4000000000000E-01  1.1406297660598E+00 -7.1935539446773E-02
    96  9.5000000000000E-01  1.1368633598630E+00 -5.2952247948912E-02
    97  9.6000000000000E-01  1.1325450340617E+00 -3.3585033500364E-02
    98  9.7000000000000E-01  1.1276787056031E+00 -1.3852702747254E-02
    99  9.8000000000000E-01  1.1222687164722E+00  6.2260282223728E-03
   100  9.9000000000000E-01  1.1163198208285E+00  2.6632581990927E-02
   101  1.0000000000000E+00  1.1098371727613E+00  4.7348562884305E-02
   102  1.0100000000000E+00  1.1028263147458E+00  6.8355794765693E-02
   103  1.0200000000000E+00  1.0952931668751E+00  8.9636353352043E-02
   104  1.0300000000000E+00  1.0872440169307E+00  1.1117259289767E-01
   105  1.0400000000000E+00  1.0786855113447E+00  1.3294716713451E-01
   106  1.0500000000000E+00  1.0696246470956E+00  1.5494304440313E-01
   107  1.0600000000000E+00  1.0600687645678E+00  1.7714351695554E-01
   108  1.0700000000000E+00  1.0500255413941E+00  1.9953220445630E-01
   109  1.0800000000000E+00  1.0395029872876E+00  2.2209305175553E-01
   110  1.0900000000000E+00  1.0285094398579E+00  2.4481032105355E-01
   111  1.1000000000000E+00  1.0170535613948E+00  2.6766857862222E-01
   112  1.1100000000000E+00  1.0051443365915E+00  2.9065267629282E-01
   113  1.1200000000000E+00  9.9279107116450E-01  3.1374772796399E-01
   114  1.1300000000000E+00  9.8000339132180E-01  3.3693908142473E-01
   115  1.1400000000000E+00  9.6679124401296E-01  3.6021228582758E-01
   116  1.1500000000000E+00  9.5316489789010E-01  3.8355305518511E-01
   117  1.1600000000000E+00  9.3913494489494E-01  4.0694722829782E-01
   118  1.1700000000000E+00  9.2471230237934E-01  4.3038072555437E-01
   119  1.1800000000000E+00  9.0990821565714E-01  4.5383950307453E-01
   120  1.1900000000000E+00  8.9473426087778E-01  4.7730950469145E-01
   121  1.2000000000000E+00  8.7920234810423E-01  5.0077661229277E-01
   122  1.2100000000000E+00  8.6332472447194E-01  5.2422659505906E-01
   123  1.2200000000000E+00  8.4711397729993E-01  5.4764505815324E-01
   124  1.2300000000000E+00  8.3058303702079E-01  5.7101739142588E-01
   125  1.2400000000000E+00  8.1374517979308E-01  5.9432871870795E-01
   126  1.2500000000000E+00  7.9661402965715E-01  6.1756384826568E-01
   127  1.2600000000000E+00  7.7920356009472E-01  6.4070722498965E-01
   128  1.2700000000000E+00  7.6152809485206E-01  6.6374288488507E-01
   129  1.2800000000000E+00  7.4360230788821E-01  6.8665441241834E-01
   130  1.2900000000000E+00  7.2544122231195E-01  7.0942490126074E-01
   131  1.3000000000000E+00  7.0706020817462E-01  7.3203691895012E-01
   132  1.3100000000000E+00  6.8847497899089E-01  7.5447247596744E-01
   133  1.3200000000000E+00  6.6970158686538E-01  7.7671299969682E-01
   134  1.3300000000000E+00  6.5075641611001E-01  7.9873931370544E-01
   135  1.3400000000000E+00  6.3165617524532E-01  8.2053162274318E-01
   136  1.3500000000000E+00  6.1241788728802E-01  8.4206950382115E-01
   137  1.3600000000000E+00  5.9305887823765E-01  8.6333190368557E-01
   138  1.3700000000000E+00  5.7359676368611E-01  8.8429714295463E-01
   139  1.3800000000000E+00  5.5404943348646E-01  9.0494292713700E-01
   140  1.3900000000000E+00  5.3443503443003E-01  9.2524636469659E-01
   141  1.4000000000000E+00  5.1477195089523E-01  9.4518399227261E-01
   142  1.4100000000000E+00  4.9507878344542E-01  9.6473180710642E-01
   143  1.4200000000000E+00  4.7537432536901E-01  9.8386530666623E-01
   144  1.4300000000000E+00  4.5567753717018E-01  1.0025595353999E+00
   145  1.4400000000000E+00  4.3600751903515E-01  1.0207891384837E+00
   146  1.4500000000000E+00  4.1638348131518E-01  1.0385284223708E+00
   147  1.4600000000000E+00  3.9682471308428E-01  1.0557514218824E+00
   148  1.4700000000000E+00  3.7735054884669E-01  1.0724319735173E+00
   149  1.4800000000000E+00  3.5798033348575E-01  1.0885437945962E+00
   150  1.4900000000000E+00  3.3873338556288E-01  1.1040605677937E+00
   151  1.5000000000000E+00  3.1962895909191E-01  1.1189560305493E+00
   152  1.5100000000000E+00  3.0068620393022E-01  1.1332040687932E+00
   153  1.5200000000000E+00  2.8192412494436E-01  1.1467788143614E+00
   154  1.5300000000000E+00  2.6336154012272E-01  1.1596547454251E+00
   155  1.5400000000000E+00  2.4501703782314E-01  1.1718067892041E+00
   156  1.5500000000000E+00  2.2690893335685E-01  1.1832104261891E+00
   157  1.5600000000000E+00  2.0905522512373E-01  1.1938417950518E+00
   158  1.5700000000000E+00  1.9147355052590E-01  1.2036777973815E+00
   159  1.5800000000000E+00  1.7418114189791E-01  1.2126962013525E+00
   160  1.5900000000000E+00  1.5719478270203E-01  1.2208757433922E+00
   161  1.6000000000000E+00  1.4053076424613E-01  1.2281962268969E+00
   162  1.6100000000000E+00  1.2420484318909E-01  1.2346386170173E+00
   163  1.6200000000000E+00  1.0823220010524E-01  1.2401851305229E+00
   164  1.6300000000000E+00  9.2627399384376E-02  1.2448193197408E+00
   165  1.6400000000000E+00  7.7404350747159E-02  1.2485261495618E+00
   166  1.6500000000000E+00  6.2576272658081E-02  1.2512920665052E+00
   167  1.6600000000000E+00  4.8155657918483E-02  1.2531050588421E+00
   168  1.6700000000000E+00  3.4154241721334E-02  1.2539547067886E+00
   169  1.6800000000000E+00  2.0582972446763E-02  1.2538322217976E+00
   170  1.6900000000000E+00  7.4519854733761E-03  1.2527304740026E+00
   171  1.7000000000000E+00 -5.2294197253415E-03  1.2506440068981E+00
   172  1.7100000000000E+00 -1.7452798937387E-02  1.2475690383728E+00
   173  1.7200000000000E+00 -2.9210578767932E-02  1.2435034472573E+00
   174  1.7300000000000E+00 -4.0496068151165E-02  1.2384467445897E+00
   175  1.7400000000000E+00 -5.1303465586658E-02  1.2324000288583E+00
   176  1.7500000000000E+00 -6.1627861881759E-02  1.2253659245322E+00
   177  1.7600000000000E+00 -7.1465238195892E-02  1.2173485032558E+00
   178  1.7700000000000E+00 -8.0812459198254E-02  1.2083531871447E+00
   179  1.7800000000000E+00 -8.9667261156900E-02  1.1983866333934E+00
   180  1.7900000000000E+00 -9.8028234789797E-02  1.1874565998939E+00
   181  1.8000000000000E+00 -1.0589480342272E-01  1.1755718072506E+00
   182  1.8100000000000E+00 -1.1326719276669E-01  1.1627417032013E+00
   183  1.8200000000000E+00 -1.2014641552064E-01  1.1489767814459E+00
   184  1.8300000000000E+00 -1.2653429087187E-01  1.1342896355895E+00
   185  1.8400000000000E+00 -1.3243346833553E-01  1.1186956246774E+00
   186  1.8500000000000E+00 -1.3784743048251E-01  1.1022128106866E+00
   187  1.8600000000000E+00 -1.4278049386123E-01  1.0848619472567E+00
   188  1.8700000000000E+00 -1.4723780632134E-01  1.0666664415839E+00
   189  1.8800000000000E+00 -1.5122534097968E-01  1.0476523038686E+00
   190  1.8900000000000E+00 -1.5474988685253E-01  1.0278480845522E+00
   191  1.9000000000000E+00 -1.5781903616667E-01  1.0072847993122E+00
   192  1.9100000000000E+00 -1.6044116839007E-01  9.8599584216668E-01
   193  1.9200000000000E+00 -1.6262543103930E-01  9.6401688706746E-01
   194  1.9300000000000E+00 -1.6438171733620E-01  9.4138577840308E-01
   195  1.9400000000000E+00 -1.6572064080523E-01  9.1814241092123E-01
   196  1.9500000000000E+00 -1.6665350691964E-01  8.9432859964869E-01
   197  1.9600000000000E+00 -1.6719228191911E-01  8.6998794041236E-01
   198  1.9700000000000E+00 -1.6734955893368E-01  8.4516566159916E-01
   199  1.9800000000000E+00 -1.6713852157006E-01  8.1990846791462E-01
   200  1.9900000000000E+00 -1.6657290512184E-01  7.9426437685699E-01
   201  2.0000000000000E+00 -1.6566695558204E-01  7.6828254871532E-01
   202  2.0100000000000E+00 -1.6443538664678E-01  7.4201311092384E-01
   203  2.0200000000000E+00 -1.6289333490545E-01  7.1550697759766E-01
   204  2.0300000000000E+00 -1.6105631342814E-01  6.8881566517170E-01
   205  2.0400000000000E+00 -1.5894016396506E-01  6.6199110503680E-01
   206  2.0500000000000E+00 -1.5656100797628E-01  6.3508545405831E-01
   207  2.0600000000000E+00 -1.5393519672085E-01  6.0815090392600E-01
   208  2.0700000000000E+00 -1.5107926063814E-01  5.8123949028467E-01
   209  2.0800000000000E+00 -1.4800985825362E-01  5.5440290256095E-01
   210  2.0900000000000E+00 -1.4474372484108E-01  5.2769229538365E-01
   211  2.1000000000000E+00 -1.4129762108299E-01  5.0115810257136E-01
   212  2.1100000000000E+00 -1.3768828196031E-01  4.7484985455895E-01
   213  2.1200000000000E+00 -1.3393236610348E-01  4.4881600014188E-01
   214  2.1300000000000E+00 -1.3004640583552E-01  4.2310373341534E-01
   215  2.1400000000000E+00 -1.2604675812876E-01  3.9775882671605E-01
   216  2.1500000000000E+00 -1.2194955669555E-01  3.7282547038164E-01
   217  2.1600000000000E+00 -1.1777066542430E-01  3.4834612008870E-01
   218  2.1700000000000E+00 -1.1352563336297E-01  3.2436135247864E-01
   219  2.1800000000000E+00 -1.0922965144116E-01  3.0090972972330E-01
   220  2.1900000000000E+00 -1.0489751112156E-01  2.7802767370771E-01
   221  2.2000000000000E+00 -1.0054356514758E-01  2.5574935035816E-01
   222  2.2100000000000E+00 -9.6181690549924E-02  2.3410656464420E-01
   223  2.2200000000000E+00 -9.1825254061106E-02  2.1312866672729E-01
   224  2.2300000000000E+00 -8.7487080071375E-02  1.9284246963714E-01
   225  2.2400000000000E+00 -8.3179421247541E-02  1.7327217882717E-01
   226  2.2500000000000E+00 -7.8913931922124E-02  1.5443933388894E-01
   227  2.2600000000000E+00 -7.4701644342257E-02  1.3636276262802E-01
   228  2.2700000000000E+00 -7.0552947854097E-02  1.1905854763702E-01
   229  2.2800000000000E+00 -6.6477571084208E-02  1.0254000546288E-01
   230  2.2900000000000E+00 -6.2484567162655E-02  8.6817678380398E-02
   231  2.3000000000000E+00 -5.8582302014038E-02  7.1899338708475E-02
   232  2.3100000000000E+00 -5.4778445728549E-02  5.7790005540831E-02
   233  2.3200000000000E+00 -5.1079967011474E-02  4.4491973730822E-02
   234  2.3300000000000E+00 -4.7493130690896E-02  3.2004854876676E-02
   235  2.3400000000000E+00 -4.4023498244231E-02  2.0325629967706E-02
   236  2.3500000000000E+00 -4.0675931300865E-02  9.4487133721241E-03
   237  2.3600000000000E+00 -3.7454598049306E-02 -6.3397229870500E-04
   238  2.3700000000000E+00 -3.4362982467039E-02 -9.9329109432722E-03
   239  2.3800000000000E+00 -3.1403896288307E-02 -1.8460897828641E-02
   240  2.3900000000000E+00 -2.8579493596516E-02 -2.6232935172523E-02
   241  2.4000000000000E+00 -2.5891287922462E-02 -3.3266119077590E-02
   242  2.4100000000000E+00 -2.3340171717213E-02 -3.9579518495569E-02
   243  2.4200000000000E+00 -2.0926438060808E-02 -4.5194046912890E-02
   244  2.4300000000000E+00 -1.8649804452818E-02 -5.0132327512985E-02
   245  2.4400000000000E+00 -1.6509438525315E-02 -5.4418552583744E-02
   246  2.4500000000000E+00 -1.4503985505890E-02 -5.8078337996558E-02
   247  2.4600000000000E+00 -1.2631597258300E-02 -6.1138573550460E-02
   248  2.4700000000000E+00 -1.0889962721397E-02 -6.3627270004412E-02
   249  2.4800000000000E+00 -9.2763395528873E-03 -6.5573403694823E-02
   250  2.4900000000000E+00 -7.7875867930355E-03 -6.7006759551734E-02
   251  2.5000000000000E+00 -6.4201983567168E-03 -6.7957773364038E-02
   252  2.5100000000000E+00 -5.1703371524716E-03 -6.8457374192642E-02
   253  2.5200000000000E+00 -4.0338696396556E-03 -6.8536827735534E-02
   254  2.5300000000000E+00 -3.0064006307357E-03 -6.8227581472748E-02
   255  2.5400000000000E+00 -2.0833081445032E-03 -6.7561112421119E-02
   256  2.5500000000000E+00 -1.2597781194392E-03 -6.6568778296317E-02
   257  2.5600000000000E+00 -5.3083880504264E-04 -6.5281672834258E-02
   258  2.5700000000000E+00  1.0860534869595E-04 -6.3730486005335E-02
   259  2.5800000000000E+00  6.6374047758524E-04 -6.1945369821006E-02
   260  2.5900000000000E+00  1.1398109283565E-03 -5.9955810376425E-02
   261  2.6000000000000E+00  1.5420878927842E-03 -5.7790506807286E-02
   262  2.6100000000000E+00  1.8758391883490E-03 -5.5477257667350E-02
   263  2.6200000000000E+00  2.1463003251724E-03 -5.3042855249019E-02
   264  2.6300000000000E+00  2.3586470028013E-03 -5.0512988389272E-02
   265  2.6400000000000E+00  2.5179691409458E-03 -4.7912154104009E-02
   266  2.6500000000000E+00  2.6292465552708E-03 -4.5263578430769E-02
   267  2.6600000000000E+00  2.6973263831620E-03 -4.2589146833164E-02
   268  2.6700000000000E+00  2.7269023273714E-03 -3.9909344340445E-02
   269  2.6800000000000E+00  2.7224957977506E-03 -3.7243205652789E-02
   270  2.6900000000000E+00  2.6884390054735E-03 -3.4608275326831E-02
   271  2.7000000000000E+00  2.6288600435728E-03 -3.2020578059745E-02
   272  2.7100000000000E+00  2.5476700074023E-03 -2.9494599181797E-02
   273  2.7200000000000E+00  2.4485521461508E-03 -2.7043275178140E-02
   274  2.7300000000000E+00  2.3349530577907E-03 -2.4677994160438E-02
   275  2.7400000000000E+00  2.2100759274722E-03 -2.2408606156427E-02
   276  2.7500000000000E+00  2.0768757668657E-03 -2.0243442892155E-02
   277  2.7600000000000E+00  1.9380566371379E-03 -1.8189346851674E-02
   278  2.7700000000000E+00  1.7960707961406E-03 -1.6251709219285E-02
   279  2.7800000000000E+00  1.6531197115502E-03 -1.4434516313573E-02
   280  2.7900000000000E+00  1.5111568775476E-03 -1.2740404098334E-02
   281  2.8000000000000E+00  1.3718923348386E-03 -1.1170720201372E-02
   282  2.8100000000000E+00  1.2367988213086E-03 -9.7255929861671E-03
   283  2.8200000000000E+00  1.1071194409919E-03 -8.4040070548005E-03
   284  2.8300000000000E+00  9.8387674294633E-04 -7.2038845803325E-03
   285  2.8400000000000E+00  8.6788309793675E-04 -6.1221718424757E-03
   286  2.8500000000000E+00  7.5975223581494E-04 -5.1549302515869E-03
   287  2.8600000000000E+00  6.5991182805723E-04 -4.2974312260908E-03
   288  2.8700000000000E+00  5.6861832963524E-04 -3.5442591128321E-03
   289  2.8800000000000E+00  4.8596418611295E-04 -2.8893859997805E-03
   290  2.8900000000000E+00  4.1190284796155E-04 -2.3263106355487E-03
   291  2.9000000000000E+00  3.4626898832021E-04 -1.8481787885724E-03
   292  2.9100000000000E+00  2.8877236405855E-04 -1.4478079012630E-03
   293  2.9200000000000E+00  2.3900536856059E-04 -1.1177594381045E-03
   294  2.9300000000000E+00  1.9609609250187E-04 -8.4911941599887E-04
   295  2.9400000000000E+00  1.5891733452194E-04 -6.3229929245083E-04
   296  2.9500000000000E+00  1.2692088499224E-04 -4.6010685408228E-04
   297  2.9600000000000E+00  9.9819570656222E-05 -3.2663183630390E-04
   298  2.9700000000000E+00  7.7150771972241E-05 -2.2569980750317E-04
   299  2.9800000000000E+00  5.8453960992163E-05 -1.5154908490214E-04
   300  2.9900000000000E+00  4.3273363554652E-05 -9.8871033527760E-05
   301  3.0000000000000E+00  3.1155527606627E-05 -6.2829861581737E-05
   302  3.0100000000000E+00  2.1666841780490E-05 -3.9151728661731E-05
   303  3.0200000000000E+00  1.4400165589876E-05 -2.4171567837350E-05
   304  3.0300000000000E+00  8.9865914224675E-06 -1.4900577117438E-05
   305  3.0400000000000E+00  5.0880557488200E-06 -8.9906323649826E-06
   306  3.0500000000000E+00  2.4256726712298E-06 -4.8979058370315E-06
   307  3.0600000000000E+00  8.2297860190993E-07 -2.0052183781570E-06
   308  3.0700000000000E+00  7.3297360792763E-08 -1.9515959425463E-07
   309  3.0800000000000E+00 -1.1397163897971E-07  4.1048119410256E-07
   310  3.0900000000000E+00 -4.0851501832436E-08  1.5427672010176E-07
   311  3.1000  0. -0.
   312  3.1100  0. -0.
   313  3.1200 -0.  0.
   314  3.1300 -0.  0.
   315  3.1400  0. -0.
   316  3.1500  0.  0.
   317  3.1600  0.  0.
   318  3.1700  0.  0.
   319  3.1800  0.  0.
   320  3.1900  0.  0.
   321  3.2000  0.  0.
   322  3.2100  0.  0.
   323  3.2200  0.  0.
   324  3.2300  0.  0.
   325  3.2400  0.  0.
   326  3.2500  0.  0.
   327  3.2600  0.  0.
   328  3.2700  0.  0.
   329  3.2800  0.  0.
   330  3.2900  0.  0.
   331  3.3000  0.  0.
   332  3.3100  0.  0.
   333  3.3200  0.  0.
   334  3.3300  0.  0.
   335  3.3400  0.  0.
   336  3.3500  0.  0.
   337  3.3600  0.  0.
   338  3.3700  0.  0.
   339  3.3800  0.  0.
   340  3.3900  0.  0.
   341  3.4000  0.  0.
   342  3.4100  0.  0.
   343  3.4200  0.  0.
   344  3.4300  0.  0.
   345  3.4400  0.  0.
   346  3.4500  0.  0.
   347  3.4600  0.  0.
   348  3.4700  0.  0.
   349  3.4800  0.  0.
   350  3.4900  0.  0.
   351  3.5000  0.  0.
   352  3.5100  0.  0.
   353  3.5200  0.  0.
   354  3.5300  0.  0.
   355  3.5400  0.  0.
   356  3.5500  0.  0.
   357  3.5600  0.  0.
   358  3.5700  0.  0.
   359  3.5800  0.  0.
   360  3.5900  0.  0.
   361  3.6000  0.  0.
   362  3.6100  0.  0.
   363  3.6200  0.  0.
   364  3.6300  0.  0.
   365  3.6400  0.  0.
   366  3.6500  0.  0.
   367  3.6600  0.  0.
   368  3.6700  0.  0.
   369  3.6800  0.  0.
   370  3.6900  0.  0.
   371  3.7000  0.  0.
   372  3.7100  0.  0.
   373  3.7200  0.  0.
   374  3.7300  0.  0.
   375  3.7400  0.  0.
   376  3.7500  0.  0.
   377  3.7600  0.  0.
   378  3.7700  0.  0.
   379  3.7800  0.  0.
   380  3.7900  0.  0.
   381  3.8000  0.  0.
   382  3.8100  0.  0.
   383  3.8200  0.  0.
   384  3.8300  0.  0.
   385  3.8400  0.  0.
   386  3.8500  0.  0.
   387  3.8600  0.  0.
   388  3.8700  0.  0.
   389  3.8800  0.  0.
   390  3.8900  0.  0.
   391  3.9000  0.  0.
   392  3.9100  0.  0.
   393  3.9200  0.  0.
   394  3.9300  0.  0.
   395  3.9400  0.  0.
   396  3.9500  0.  0.
   397  3.9600  0.  0.
   398  3.9700  0.  0.
   399  3.9800  0.  0.
   400  3.9900  0.  0.
   401  4.0000  0.  0.
   402  4.0100  0.  0.
   403  4.0200  0.  0.
   404  4.0300  0.  0.
   405  4.0400  0.  0.
   406  4.0500  0.  0.
   407  4.0600  0.  0.
   408  4.0700  0.  0.
   409  4.0800  0.  0.
   410  4.0900  0.  0.
   411  4.1000  0.  0.
   412  4.1100  0.  0.
   413  4.1200  0.  0.
   414  4.1300  0.  0.
   415  4.1400  0.  0.
   416  4.1500  0.  0.
   417  4.1600  0.  0.
   418  4.1700  0.  0.
   419  4.1800  0.  0.
   420  4.1900  0.  0.
   421  4.2000  0.  0.
   422  4.2100  0.  0.
   423  4.2200  0.  0.
   424  4.2300  0.  0.
   425  4.2400  0.  0.
   426  4.2500  0.  0.
   427  4.2600  0.  0.
   428  4.2700  0.  0.
   429  4.2800  0.  0.
   430  4.2900  0.  0.
   431  4.3000  0.  0.
   432  4.3100  0.  0.
   433  4.3200  0.  0.
   434  4.3300  0.  0.
   435  4.3400  0.  0.
   436  4.3500  0.  0.
   437  4.3600  0.  0.
   438  4.3700  0.  0.
   439  4.3800  0.  0.
   440  4.3900  0.  0.
   441  4.4000  0.  0.
   442  4.4100  0.  0.
   443  4.4200  0.  0.
   444  4.4300  0.  0.
   445  4.4400  0.  0.
   446  4.4500  0.  0.
   447  4.4600  0.  0.
   448  4.4700  0.  0.
   449  4.4800  0.  0.
   450  4.4900  0.  0.
   451  4.5000  0.  0.
   452  4.5100  0.  0.
   453  4.5200  0.  0.
   454  4.5300  0.  0.
   455  4.5400  0.  0.
   456  4.5500  0.  0.
   457  4.5600  0.  0.
   458  4.5700  0.  0.
   459  4.5800  0.  0.
   460  4.5900  0.  0.
   461  4.6000  0.  0.
   462  4.6100  0.  0.
   463  4.6200  0.  0.
   464  4.6300  0.  0.
   465  4.6400  0.  0.
   466  4.6500  0.  0.
   467  4.6600  0.  0.
   468  4.6700  0.  0.
   469  4.6800  0.  0.
   470  4.6900  0.  0.
   471  4.7000  0.  0.
   472  4.7100  0.  0.
   473  4.7200  0.  0.
   474  4.7300  0.  0.
   475  4.7400  0.  0.
   476  4.7500  0.  0.
   477  4.7600  0.  0.
   478  4.7700  0.  0.
   479  4.7800  0.  0.
   480  4.7900  0.  0.
   481  4.8000  0.  0.
   482  4.8100  0.  0.
   483  4.8200  0.  0.
   484  4.8300  0.  0.
   485  4.8400  0.  0.
   486  4.8500  0.  0.
   487  4.8600  0.  0.
   488  4.8700  0.  0.
   489  4.8800  0.  0.
   490  4.8900  0.  0.
   491  4.9000  0.  0.
   492  4.9100  0.  0.
   493  4.9200  0.  0.
   494  4.9300  0.  0.
   495  4.9400  0.  0.
   496  4.9500  0.  0.
   497  4.9600  0.  0.
   498  4.9700  0.  0.
   499  4.9800  0.  0.
   500  4.9900  0.  0.
   501  5.0000  0.  0.
   502  5.0100  0.  0.
   503  5.0200  0.  0.
   504  5.0300  0.  0.
   505  5.0400  0.  0.
   506  5.0500  0.  0.
   507  5.0600  0.  0.
   508  5.0700  0.  0.
   509  5.0800  0.  0.
   510  5.0900  0.  0.
   511  5.1000  0.  0.
   512  5.1100  0.  0.
   513  5.1200  0.  0.
   514  5.1300  0.  0.
   515  5.1400  0.  0.
   516  5.1500  0.  0.
   517  5.1600  0.  0.
   518  5.1700  0.  0.
   519  5.1800  0.  0.
   520  5.1900  0.  0.
   521  5.2000  0.  0.
   522  5.2100  0.  0.
   523  5.2200  0.  0.
   524  5.2300  0.  0.
   525  5.2400  0.  0.
   526  5.2500  0.  0.
   527  5.2600  0.  0.
   528  5.2700  0.  0.
   529  5.2800  0.  0.
   530  5.2900  0.  0.
   531  5.3000  0.  0.
   532  5.3100  0.  0.
   533  5.3200  0.  0.
   534  5.3300  0.  0.
   535  5.3400  0.  0.
   536  5.3500  0.  0.
   537  5.3600  0.  0.
   538  5.3700  0.  0.
   539  5.3800  0.  0.
   540  5.3900  0.  0.
   541  5.4000  0.  0.
   542  5.4100  0.  0.
   543  5.4200  0.  0.
   544  5.4300  0.  0.
   545  5.4400  0.  0.
   546  5.4500  0.  0.
   547  5.4600  0.  0.
   548  5.4700  0.  0.
   549  5.4800  0.  0.
   550  5.4900  0.  0.
   551  5.5000  0.  0.
   552  5.5100  0.  0.
   553  5.5200  0.  0.
   554  5.5300  0.  0.
   555  5.5400  0.  0.
   556  5.5500  0.  0.
   557  5.5600  0.  0.
   558  5.5700  0.  0.
   559  5.5800  0.  0.
   560  5.5900  0.  0.
   561  5.6000  0.  0.
   562  5.6100  0.  0.
   563  5.6200  0.  0.
   564  5.6300  0.  0.
   565  5.6400  0.  0.
   566  5.6500  0.  0.
   567  5.6600  0.  0.
   568  5.6700  0.  0.
   569  5.6800  0.  0.
   570  5.6900  0.  0.
   571  5.7000  0.  0.
   572  5.7100  0.  0.
   573  5.7200  0.  0.
   574  5.7300  0.  0.
   575  5.7400  0.  0.
   576  5.7500  0.  0.
   577  5.7600  0.  0.
   578  5.7700  0.  0.
   579  5.7800  0.  0.
   580  5.7900  0.  0.
   581  5.8000  0.  0.
   582  5.8100  0.  0.
   583  5.8200  0.  0.
   584  5.8300  0.  0.
   585  5.8400  0.  0.
   586  5.8500  0.  0.
   587  5.8600  0.  0.
   588  5.8700  0.  0.
   589  5.8800  0.  0.
   590  5.8900  0.  0.
   591  5.9000  0.  0.
   592  5.9100  0.  0.
   593  5.9200  0.  0.
   594  5.9300  0.  0.
   595  5.9400  0.  0.
   596  5.9500  0.  0.
   597  5.9600  0.  0.
   598  5.9700  0.  0.
   599  5.9800  0.  0.
   600  5.9900  0.  0.
   1                         4.1965141636889E+00  4.5331072644474E-01
     1  0.0000000000000E+00 -5.6819965399413E-12  1.0502161640336E-11
     2  1.0000000000000E-02  2.7588993171585E-04 -2.0953580705650E-04
     3  2.0000000000000E-02  1.1034051350219E-03 -8.3791222058898E-04
     4  3.0000000000000E-02  2.4820814061545E-03 -1.8844356173234E-03
     5  4.0000000000000E-02  4.4111436476541E-03 -3.3479479627172E-03
     6  5.0000000000000E-02  6.8895037418467E-03 -5.2268238363064E-03
     7  6.0000000000000E-02  9.9157575942186E-03 -7.5189663051366E-03
     8  7.0000000000000E-02  1.3488181367056E-02 -1.0221801682929E-02
     9  8.0000000000000E-02  1.7604726929408E-02 -1.3332273223133E-02
    10  9.0000000000000E-02  2.2263016554987E-02 -1.6846833804240E-02
    11  1.0000000000000E-01  2.7460336905012E-02 -2.0761437675583E-02
    12  1.1000000000000E-01  3.3193632338309E-02 -2.5071531341590E-02
    13  1.2000000000000E-01  3.9459497595966E-02 -2.9772043671447E-02
    14  1.3000000000000E-01  4.6254169912783E-02 -3.4857375330102E-02
    15  1.4000000000000E-01  5.3573520612303E-02 -4.0321387634696E-02
    16  1.5000000000000E-01  6.1413046246653E-02 -4.6157390948361E-02