Sn    ONCVPSP-4.0.1  r_core=   3.01399   2.45929   3.01399
     50.0000     14.0000      220731    zatom,zion,pspd
     8      11   2     4   600     0    pspcod,pspxc,lmax,lloc,mmax,r2well
  5.99000000  6.50000000  0.00000000    rchrg fchrg qchrg
     2     2     2     0     0    nproj
     1     1           extension_switch
   0                         5.3915840867085E+00  9.4169280232053E-01
     1  0.0000000000000E+00  9.2068019874603E-13 -1.6207590824990E-12
     2  1.0000000000000E-02  2.9434619999054E-02 -1.7997088226273E-02
     3  2.0000000000000E-02  5.8840966056896E-02 -3.5947232671770E-02
     4  3.0000000000000E-02  8.8190812417150E-02 -5.3803598773610E-02
     5  4.0000000000000E-02  1.1745602963089E-01 -7.1519570229508E-02
     6  5.0000000000000E-02  1.4660863255457E-01 -8.9048857689690E-02
     7  6.0000000000000E-02  1.7562082816033E-01 -1.0634560692157E-01
     8  7.0000000000000E-02  2.0446506309509E-01 -1.2336450626953E-01
     9  8.0000000000000E-02  2.3311407092378E-01 -1.4006089323051E-01
    10  9.0000000000000E-02  2.6154091899118E-01 -1.5639085996422E-01
    11  1.0000000000000E-01  2.8971905483528E-01 -1.7231135755443E-01
    12  1.1000000000000E-01  3.1762235208363E-01 -1.8778029883526E-01
    13  1.2000000000000E-01  3.4522515576280E-01 -2.0275665959371E-01
    14  1.3000000000000E-01  3.7250232694879E-01 -2.1720057795658E-01
    15  1.4000000000000E-01  3.9942928668484E-01 -2.3107345176688E-01
    16  1.5000000000000E-01  4.2598205909082E-01 -2.4433803375175E-01
    17  1.6000000000000E-01  4.5213731358660E-01 -2.5695852428071E-01
    18  1.7000000000000E-01  4.7787240614972E-01 -2.6890066150996E-01
    19  1.8000000000000E-01  5.0316541952555E-01 -2.8013180870561E-01
    20  1.9000000000000E-01  5.2799520230656E-01 -2.9062103853595E-01
    21  2.0000000000000E-01  5.5234140679503E-01 -3.0033921412042E-01
    22  2.1000000000000E-01  5.7618452556223E-01 -3.0925906662103E-01
    23  2.2000000000000E-01  5.9950592661523E-01 -3.1735526916021E-01
    24  2.3000000000000E-01  6.2228788708132E-01 -3.2460450684817E-01
    25  2.4000000000000E-01  6.4451362531889E-01 -3.3098554270230E-01
    26  2.5000000000000E-01  6.6616733136258E-01 -3.3647927924132E-01
    27  2.6000000000000E-01  6.8723419561025E-01 -3.4106881553801E-01
    28  2.7000000000000E-01  7.0770043565891E-01 -3.4473949951611E-01
    29  2.8000000000000E-01  7.2755332119684E-01 -3.4747897527946E-01
    30  2.9000000000000E-01  7.4678119686006E-01 -3.4927722526554E-01
    31  3.0000000000000E-01  7.6537350296174E-01 -3.5012660701989E-01
    32  3.1000000000000E-01  7.8332079400518E-01 -3.5002188439375E-01
    33  3.2000000000000E-01  8.0061475489240E-01 -3.4896025297424E-01
    34  3.3000000000000E-01  8.1724821474330E-01 -3.4694135956421E-01
    35  3.4000000000000E-01  8.3321515824280E-01 -3.4396731553850E-01
    36  3.5000000000000E-01  8.4851073443735E-01 -3.4004270391329E-01
    37  3.6000000000000E-01  8.6313126290597E-01 -3.3517457997756E-01
    38  3.7000000000000E-01  8.7707423723555E-01 -3.2937246534796E-01
    39  3.8000000000000E-01  8.9033832573563E-01 -3.2264833532332E-01
    40  3.9000000000000E-01  9.0292336933317E-01 -3.1501659942998E-01
    41  4.0000000000000E-01  9.1483037659464E-01 -3.0649407506608E-01
    42  4.1000000000000E-01  9.2606151582909E-01 -2.9709995417104E-01
    43  4.2000000000000E-01  9.3662010423384E-01 -2.8685576286522E-01
    44  4.3000000000000E-01  9.4651059405187E-01 -2.7578531402554E-01
    45  4.4000000000000E-01  9.5573855571879E-01 -2.6391465278374E-01
    46  4.5000000000000E-01  9.6431065798617E-01 -2.5127199495678E-01
    47  4.6000000000000E-01  9.7223464501736E-01 -2.3788765844208E-01
    48  4.7000000000000E-01  9.7951931046190E-01 -2.2379398763447E-01
    49  4.8000000000000E-01  9.8617446852477E-01 -2.0902527094726E-01
    50  4.9000000000000E-01  9.9221092205758E-01 -1.9361765154495E-01
    51  5.0000000000000E-01  9.9764042770960E-01 -1.7760903142222E-01
    52  5.1000000000000E-01  1.0024756581878E+00 -1.6103896899012E-01
    53  5.2000000000000E-01  1.0067301616865E+00 -1.4394857035810E-01
    54  5.3000000000000E-01  1.0104183185593E+00 -1.2638037452780E-01
    55  5.4000000000000E-01  1.0135552953170E+00 -1.0837823274223E-01
    56  5.5000000000000E-01  1.0161569960477E+00 -8.9987182261590E-02
    57  5.6000000000000E-01  1.0182400113670E+00 -7.1253314864626E-02
    58  5.7000000000000E-01  1.0198215650182E+00 -5.2223640401287E-02
    59  5.8000000000000E-01  1.0209194582530E+00 -3.2945945749542E-02
    60  5.9000000000000E-01  1.0215520121368E+00 -1.3468649555167E-02
    61  6.0000000000000E-01  1.0217380079325E+00  6.1593468411635E-03
    62  6.1000000000000E-01  1.0214966257273E+00  2.5888811860672E-02
    63  6.2000000000000E-01  1.0208473814798E+00  4.5670339074825E-02
    64  6.3000000000000E-01  1.0198100626722E+00  6.5454505050550E-02
    65  6.4000000000000E-01  1.0184046627642E+00  8.5192029156792E-02
    66  6.5000000000000E-01  1.0166513146533E+00  1.0483393481725E-01
    67  6.6000000000000E-01  1.0145702233550E+00  1.2433171167640E-01
    68  6.7000000000000E-01  1.0121815981245E+00  1.4363747812966E-01
    69  6.8000000000000E-01  1.0095055842481E+00  1.6270414365457E-01
    70  6.9000000000000E-01  1.0065621947390E+00  1.8148557036728E-01
    71  7.0000000000000E-01  1.0033712421781E+00  1.9993673321905E-01
    72  7.1000000000000E-01  9.9995227094446E-01  2.1801387823911E-01
    73  7.2000000000000E-01  9.9632449008363E-01  2.3567467822518E-01
    74  7.3000000000000E-01  9.9250670706531E-01  2.5287838527948E-01
    75  7.4000000000000E-01  9.8851726268281E-01  2.6958597958781E-01
    76  7.5000000000000E-01  9.8437396734765E-01  2.8576031384104E-01
    77  7.6000000000000E-01  9.8009403903197E-01  3.0136625270303E-01
    78  7.7000000000000E-01  9.7569404310984E-01  3.1637080673641E-01
    79  7.8000000000000E-01  9.7118983434589E-01  3.3074326020743E-01
    80  7.9000000000000E-01  9.6659650127545E-01  3.4445529220401E-01
    81  8.0000000000000E-01  9.6192831321581E-01  3.5748109051643E-01
    82  8.1000000000000E-01  9.5719867014149E-01  3.6979745774822E-01
    83  8.2000000000000E-01  9.5242005564936E-01  3.8138390914584E-01
    84  8.3000000000000E-01  9.4760399323095E-01  3.9222276165904E-01
    85  8.4000000000000E-01  9.4276100605943E-01  4.0229921376992E-01
    86  8.5000000000000E-01  9.3790058048832E-01  4.1160141565742E-01
    87  8.6000000000000E-01  9.3303113344689E-01  4.2012052929509E-01
    88  8.7000000000000E-01  9.2815998390471E-01  4.2785077811308E-01
    89  8.8000000000000E-01  9.2329332856361E-01  4.3478948589157E-01
    90  8.9000000000000E-01  9.1843622192081E-01  4.4093710459006E-01
    91  9.0000000000000E-01  9.1359256083126E-01  4.4629723085717E-01
    92  9.1000000000000E-01  9.0876507368048E-01  4.5087661100704E-01
    93  9.2000000000000E-01  9.0395531426215E-01  4.5468513429184E-01
    94  9.3000000000000E-01  8.9916366043661E-01  4.5773581434458E-01
    95  9.4000000000000E-01  8.9438931762752E-01  4.6004475871282E-01
    96  9.5000000000000E-01  8.8963032719521E-01  4.6163112645090E-01
    97  9.6000000000000E-01  8.8488357970497E-01  4.6251707378671E-01
    98  9.7000000000000E-01  8.8014483308879E-01  4.6272768792796E-01
    99  9.8000000000000E-01  8.7540873567854E-01  4.6229090912221E-01
   100  9.9000000000000E-01  8.7066885406795E-01  4.6123744113475E-01
   101  1.0000000000000E+00  8.6591770573983E-01  4.5960065035830E-01
   102  1.0100000000000E+00  8.6114679637449E-01  4.5741645381781E-01
   103  1.0200000000000E+00  8.5634666173425E-01  4.5472319638304E-01
   104  1.0300000000000E+00  8.5150691399860E-01  4.5156151755008E-01
   105  1.0400000000000E+00  8.4661629240416E-01  4.4797420820038E-01
   106  1.0500000000000E+00  8.4166271802373E-01  4.4400605779270E-01
   107  1.0600000000000E+00  8.3663335249911E-01  4.3970369248801E-01
   108  1.0700000000000E+00  8.3151466052377E-01  4.3511540475131E-01
   109  1.0800000000000E+00  8.2629247585277E-01  4.3029097501574E-01
   110  1.0900000000000E+00  8.2095207060032E-01  4.2528148603394E-01
   111  1.1000000000000E+00  8.1547822756832E-01  4.2013913057897E-01
   112  1.1100000000000E+00  8.0985531533390E-01  4.1491701319210E-01
   113  1.1200000000000E+00  8.0406736580900E-01  4.0966894670640E-01
   114  1.1300000000000E+00  7.9809815397163E-01  4.0444924430510E-01
   115  1.1400000000000E+00  7.9193127945628E-01  3.9931250789899E-01
   116  1.1500000000000E+00  7.8555024967931E-01  3.9431341363087E-01
   117  1.1600000000000E+00  7.7893856416609E-01  3.8950649533423E-01
   118  1.1700000000000E+00  7.7207979973768E-01  3.8494592678947E-01
   119  1.1800000000000E+00  7.6495769620836E-01  3.8068530363366E-01
   120  1.1900000000000E+00  7.5755624223969E-01  3.7677742578816E-01
   121  1.2000000000000E+00  7.4985976099295E-01  3.7327408127368E-01
   122  1.2100000000000E+00  7.4185299521967E-01  3.7022583228314E-01
   123  1.2200000000000E+00  7.3352119142913E-01  3.6768180437960E-01
   124  1.2300000000000E+00  7.2485018277289E-01  3.6568947967989E-01
   125  1.2400000000000E+00  7.1582647028879E-01  3.6429449487326E-01
   126  1.2500000000000E+00  7.0643730215155E-01  3.6354044490953E-01
   127  1.2600000000000E+00  6.9667075058261E-01  3.6346869317227E-01
   128  1.2700000000000E+00  6.8651578607980E-01  3.6411818892963E-01
   129  1.2800000000000E+00  6.7596234863658E-01  3.6552529282861E-01
   130  1.2900000000000E+00  6.6500141563127E-01  3.6772361116819E-01
   131  1.3000000000000E+00  6.5362506607949E-01  3.7074383965201E-01
   132  1.3100000000000E+00  6.4182654095642E-01  3.7461361728434E-01
   133  1.3200000000000E+00  6.2960029931153E-01  3.7935739103091E-01
   134  1.3300000000000E+00  6.1694206991480E-01  3.8499629182226E-01
   135  1.3400000000000E+00  6.0384889819195E-01  3.9154802242955E-01
   136  1.3500000000000E+00  5.9031918822544E-01  3.9902675769227E-01
   137  1.3600000000000E+00  5.7635273961898E-01  4.0744305752411E-01
   138  1.3700000000000E+00  5.6195077904486E-01  4.1680379306775E-01
   139  1.3800000000000E+00  5.4711598631632E-01  4.2711208631123E-01
   140  1.3900000000000E+00  5.3185251485103E-01  4.3836726341940E-01
   141  1.4000000000000E+00  5.1616600641615E-01  4.5056482197167E-01
   142  1.4100000000000E+00  5.0006360007089E-01  4.6369641223500E-01
   143  1.4200000000000E+00  4.8355393524836E-01  4.7774983253683E-01
   144  1.4300000000000E+00  4.6664714894476E-01  4.9270903873783E-01
   145  1.4400000000000E+00  4.4935486701078E-01  5.0855416773902E-01
   146  1.4500000000000E+00  4.3169018956711E-01  5.2526157489222E-01
   147  1.4600000000000E+00  4.1366767059288E-01  5.4280388511724E-01
   148  1.4700000000000E+00  3.9530329176295E-01  5.6115005746421E-01
   149  1.4800000000000E+00  3.7661443063710E-01  5.8026546279525E-01
   150  1.4900000000000E+00  3.5761982333033E-01  6.0011197419589E-01
   151  1.5000000000000E+00  3.3833952182023E-01  6.2064806966549E-01
   152  1.5100000000000E+00  3.1879484607263E-01  6.4182894657483E-01
   153  1.5200000000000E+00  2.9900833119205E-01  6.6360664732142E-01
   154  1.5300000000000E+00  2.7900366982755E-01  6.8593019555647E-01
   155  1.5400000000000E+00  2.5880565008797E-01  7.0874574230456E-01
   156  1.5500000000000E+00  2.3844008924275E-01  7.3199672124611E-01
   157  1.5600000000000E+00  2.1793376350585E-01  7.5562401238517E-01
   158  1.5700000000000E+00  1.9731433422002E-01  7.7956611328134E-01
   159  1.5800000000000E+00  1.7661027077722E-01  8.0375931698362E-01
   160  1.5900000000000E+00  1.5585077062820E-01  8.2813789576755E-01
   161  1.6000000000000E+00  1.3506567674974E-01  8.5263428974445E-01
   162  1.6100000000000E+00  1.1428539295176E-01  8.7717929938280E-01
   163  1.6200000000000E+00  9.3540797419094E-02  9.0170228095817E-01
   164  1.6300000000000E+00  7.2863154892654E-02  9.2613134392836E-01
   165  1.6400000000000E+00  5.2284027903794E-02  9.5039354921576E-01
   166  1.6500000000000E+00  3.1835187481853E-02  9.7441510736889E-01
   167  1.6600000000000E+00  1.1548523759958E-02  9.9812157556995E-01
   168  1.6700000000000E+00 -8.5440430932735E-03  1.0214380524550E+00
   169  1.6800000000000E+00 -2.8410651185151E-02  1.0442893696153E+00
   170  1.6900000000000E+00 -4.8019584021800E-02  1.0666002788108E+00
   171  1.7000000000000E+00 -6.7339356184315E-02  1.0882956391544E+00
   172  1.7100000000000E+00 -8.6338796270425E-02  1.1093005709796E+00
   173  1.7200000000000E+00 -1.0498713252229E-01  1.1295408095191E+00
   174  1.7300000000000E+00 -1.2325409362305E-01  1.1489435561328E+00
   175  1.7400000000000E+00 -1.4111001456180E-01  1.1674381568843E+00
   176  1.7500000000000E+00 -1.5852593335608E-01  1.1849563173724E+00
   177  1.7600000000000E+00 -1.7547368522720E-01  1.2014323214641E+00
   178  1.7700000000000E+00 -1.9192599376691E-01  1.2168032366104E+00
   179  1.7800000000000E+00 -2.0785655886702E-01  1.2310091102881E+00
   180  1.7900000000000E+00 -2.2324014115267E-01  1.2439931570422E+00
   181  1.8000000000000E+00 -2.3805264266464E-01  1.2557019354828E+00
   182  1.8100000000000E+00 -2.5227118355139E-01  1.2660855147026E+00
   183  1.8200000000000E+00 -2.6587417454474E-01  1.2750976296000E+00
   184  1.8300000000000E+00 -2.7884138501056E-01  1.2826958246703E+00
   185  1.8400000000000E+00 -2.9115400637887E-01  1.2888415858141E+00
   186  1.8500000000000E+00 -3.0279471077562E-01  1.2935004597823E+00
   187  1.8600000000000E+00 -3.1374770469336E-01  1.2966421608907E+00
   188  1.8700000000000E+00 -3.2399877755555E-01  1.2982406646871E+00
   189  1.8800000000000E+00 -3.3353534504667E-01  1.2982742882988E+00
   190  1.8900000000000E+00 -3.4234648709603E-01  1.2967257572070E+00
   191  1.9000000000000E+00 -3.5042298042142E-01  1.2935822582458E+00
   192  1.9100000000000E+00 -3.5775732555701E-01  1.2888354786790E+00
   193  1.9200000000000E+00 -3.6434376830608E-01  1.2824816312272E+00
   194  1.9300000000000E+00 -3.7017831557669E-01  1.2745214649616E+00
   195  1.9400000000000E+00 -3.7525874557789E-01  1.2649602620471E+00
   196  1.9500000000000E+00 -3.7958461236931E-01  1.2538078203328E+00
   197  1.9600000000000E+00 -3.8315724477596E-01  1.2410784218498E+00
   198  1.9700000000000E+00 -3.8597973969708E-01  1.2267907873152E+00
   199  1.9800000000000E+00 -3.8805694985375E-01  1.2109680167728E+00
   200  1.9900000000000E+00 -3.8939546603952E-01  1.1936375165706E+00
   201  2.0000000000000E+00 -3.9000359395406E-01  1.1748309129073E+00
   202  2.0100000000000E+00 -3.8989132571395E-01  1.1545839522004E+00
   203  2.0200000000000E+00 -3.8907030615460E-01  1.1329363886071E+00
   204  2.0300000000000E+00 -3.8755379405261E-01  1.1099318590635E+00
   205  2.0400000000000E+00 -3.8535661841105E-01  1.0856177462287E+00
   206  2.0500000000000E+00 -3.8249512996596E-01  1.0600450297679E+00
   207  2.0600000000000E+00 -3.7898714809037E-01  1.0332681264757E+00
   208  2.0700000000000E+00 -3.7485190328151E-01  1.0053447197366E+00
   209  2.0800000000000E+00 -3.7010997543348E-01  9.7633557888237E-01
   210  2.0900000000000E+00 -3.6478322811003E-01  9.4630436903597E-01
   211  2.1000000000000E+00 -3.5889473904293E-01  9.1531745204701E-01
   212  2.1100000000000E+00 -3.5246872709573E-01  8.8344367918595E-01
   213  2.1200000000000E+00 -3.4553047594234E-01  8.5075417626799E-01
   214  2.1300000000000E+00 -3.3810625471830E-01  8.1732212190184E-01
   215  2.1400000000000E+00 -3.3022323591398E-01  7.8322251959333E-01
   216  2.1500000000000E+00 -3.2190941078922E-01  7.4853196446610E-01
   217  2.1600000000000E+00 -3.1319350259032E-01  7.1332840534053E-01
   218  2.1700000000000E+00 -3.0410487786406E-01  6.7769090297287E-01
   219  2.1800000000000E+00 -2.9467345616449E-01  6.4169938524027E-01
   220  2.1900000000000E+00 -2.8492961845356E-01  6.0543440007165E-01
   221  2.2000000000000E+00 -2.7490411450291E-01  5.6897686694849E-01
   222  2.2100000000000E+00 -2.6462796960448E-01  5.3240782778820E-01
   223  2.2200000000000E+00 -2.5413239089897E-01  4.9580819802295E-01
   224  2.2300000000000E+00 -2.4344867363282E-01  4.5925851869241E-01
   225  2.2400000000000E+00 -2.3260810765497E-01  4.2283871037274E-01
   226  2.2500000000000E+00 -2.2164188446211E-01  3.8662782974673E-01
   227  2.2600000000000E+00 -2.1058100509674E-01  3.5070382960325E-01
   228  2.2700000000000E+00 -1.9945618920081E-01  3.1514332305355E-01
   229  2.2800000000000E+00 -1.8829778552629E-01  2.8002135275385E-01
   230  2.2900000000000E+00 -1.7713568419085E-01  2.4541116586144E-01
   231  2.3000000000000E+00 -1.6599923096684E-01  2.1138399547334E-01
   232  2.3100000000000E+00 -1.5491714388195E-01  1.7800884925903E-01
   233  2.3200000000000E+00 -1.4391743239943E-01  1.4535230596011E-01
   234  2.3300000000000E+00 -1.3302731944103E-01  1.1347832043181E-01
   235  2.3400000000000E+00 -1.2227316650189E-01  8.2448037851516E-02
   236  2.3500000000000E+00 -1.1168040209499E-01  5.2319617687815E-02
   237  2.3600000000000E+00 -1.0127345375462E-01  2.3148067998594E-02
   238  2.3700000000000E+00 -9.1075683812221E-02 -5.0149094104006E-03
   239  2.3800000000000E+00 -8.1109329145573E-02 -3.2121062473897E-02
   240  2.3900000000000E+00 -7.1395445090346E-02 -5.8125720543853E-02
   241  2.4000000000000E+00 -6.1953853684543E-02 -8.2987913848125E-02
   242  2.4100000000000E+00 -5.2803096403091E-02 -1.0667048035454E-01
   243  2.4200000000000E+00 -4.3960391525679E-02 -1.2914015970166E-01
   244  2.4300000000000E+00 -3.5441596263652E-02 -1.5036767391595E-01
   245  2.4400000000000E+00 -2.7261173753282E-02 -1.7032779467049E-01
   246  2.4500000000000E+00 -1.9432165006127E-02 -1.8899939688945E-01
   247  2.4600000000000E+00 -1.1966165896484E-02 -2.0636549853935E-01
   248  2.4700000000000E+00 -4.8733092383661E-03 -2.2241328650805E-01
   249  2.4800000000000E+00  1.8377480088331E-03 -2.3713412851424E-01
   250  2.4900000000000E+00  8.1598323764229E-03 -2.5052357101549E-01
   251  2.5000000000000E+00  1.4087256367303E-02 -2.6258132317119E-01
   252  2.5100000000000E+00  1.9615815796613E-02 -2.7331122694436E-01
   253  2.5200000000000E+00  2.4742782013014E-02 -2.8272121343819E-01
   254  2.5300000000000E+00  2.9466889056088E-02 -2.9082324566222E-01
   255  2.5400000000000E+00  3.3788315818646E-02 -2.9763324795267E-01
   256  2.5500000000000E+00  3.7708663288398E-02 -3.0317102228976E-01
   257  2.5600000000000E+00  4.1230926972708E-02 -3.0746015182425E-01
   258  2.5700000000000E+00  4.4359464626246E-02 -3.1052789197206E-01
   259  2.5800000000000E+00  4.7099959403903E-02 -3.1240504944490E-01
   260  2.5900000000000E+00  4.9459378592758E-02 -3.1312584965935E-01
   261  2.6000000000000E+00  5.1445928088059E-02 -3.1272779299891E-01
   262  2.6100000000000E+00  5.3069002778924E-02 -3.1125150040964E-01
   263  2.6200000000000E+00  5.4339133044638E-02 -3.0874054889198E-01
   264  2.6300000000000E+00  5.5267927561732E-02 -3.0524129745336E-01
   265  2.6400000000000E+00  5.5868012629958E-02 -3.0080270410790E-01
   266  2.6500000000000E+00  5.6152968256412E-02 -2.9547613458803E-01
   267  2.6600000000000E+00  5.6137261229337E-02 -2.8931516341407E-01
   268  2.6700000000000E+00  5.5836175425448E-02 -2.8237536799199E-01
   269  2.6800000000000E+00  5.5265739616556E-02 -2.7471411647240E-01
   270  2.6900000000000E+00  5.4442653033241E-02 -2.6639035008472E-01
   271  2.7000000000000E+00  5.3384208960847E-02 -2.5746436069574E-01
   272  2.7100000000000E+00  5.2108216647675E-02 -2.4799756435774E-01
   273  2.7200000000000E+00  5.0632921804991E-02 -2.3805227161464E-01
   274  2.7300000000000E+00  4.8976925992870E-02 -2.2769145536117E-01
   275  2.7400000000000E+00  4.7159105178018E-02 -2.1697851703390E-01
   276  2.7500000000000E+00  4.5198527760901E-02 -2.0597705194243E-01
   277  2.7600000000000E+00  4.3114372366335E-02 -1.9475061453511E-01
   278  2.7700000000000E+00  4.0925845694350E-02 -1.8336248440598E-01
   279  2.7800000000000E+00  3.8652100725800E-02 -1.7187543383389E-01
   280  2.7900000000000E+00  3.6312155572592E-02 -1.6035149763659E-01
   281  2.8000000000000E+00  3.3924813270854E-02 -1.4885174614518E-01
   282  2.8100000000000E+00  3.1508583898728E-02 -1.3743606467391E-01
   283  2.8200000000000E+00  2.9081602224129E-02 -1.2616292339051E-01
   284  2.8300000000000E+00  2.6661554882286E-02 -1.1508917102907E-01
   285  2.8400000000000E+00  2.4265625944406E-02 -1.0426987354768E-01
   286  2.8500000000000E+00  2.1910383024185E-02 -9.3758012589238E-02
   287  2.8600000000000E+00  1.9611736159291E-02 -8.3604358760462E-02
   288  2.8700000000000E+00  1.7384519043121E-02 -7.3856445705510E-02
   289  2.8800000000000E+00  1.5242456494917E-02 -6.4558466386999E-02
   290  2.8900000000000E+00  1.3199052628286E-02 -5.5753364744781E-02
   291  2.9000000000000E+00  1.1267355927437E-02 -4.7482253785184E-02
   292  2.9100000000000E+00  9.4592739789733E-03 -3.9782762989837E-02
   293  2.9200000000000E+00  7.7856913964825E-03 -3.2689299440599E-02
   294  2.9300000000000E+00  6.2564332760753E-03 -2.6232942893590E-02
   295  2.9400000000000E+00  4.8802038696435E-03 -2.0441283993588E-02
   296  2.9500000000000E+00  3.6645595843546E-03 -1.5338345915912E-02
   297  2.9600000000000E+00  2.6158739888707E-03 -1.0944488703983E-02
   298  2.9700000000000E+00  1.7399711852258E-03 -7.2791129358740E-03
   299  2.9800000000000E+00  1.0377044589638E-03 -4.3420901053147E-03
   300  2.9900000000000E+00  5.1327815055297E-04 -2.1487986026837E-03
   301  3.0000000000000E+00  1.8211703160201E-04 -7.6306452800808E-04
   302  3.0100000000000E+00  2.6133261061069E-05 -1.0961132513148E-04
   303  3.0200000000000E+00 -1.4057887175713E-05  5.8987792115918E-05
   304  3.0300000000000E+00 -3.4334827462436E-06  1.4413799454963E-05
   305  3.0400  0. -0.
   306  3.0500  0. -0.
   307  3.0600 -0.  0.
   308  3.0700 -0.  0.
   309  3.0800 -0.  0.
   310  3.0900  0.  0.
   311  3.1000  0.  0.
   312  3.1100  0.  0.
   313  3.1200  0.  0.
   314  3.1300  0.  0.
   315  3.1400  0.  0.
   316  3.1500  0.  0.
   317  3.1600  0.  0.
   318  3.1700  0.  0.
   319  3.1800  0.  0.
   320  3.1900  0.  0.
   321  3.2000  0.  0.
   322  3.2100  0.  0.
   323  3.2200  0.  0.
   324  3.2300  0.  0.
   325  3.2400  0.  0.
   326  3.2500  0.  0.
   327  3.2600  0.  0.
   328  3.2700  0.  0.
   329  3.2800  0.  0.
   330  3.2900  0.  0.
   331  3.3000  0.  0.
   332  3.3100  0.  0.
   333  3.3200  0.  0.
   334  3.3300  0.  0.
   335  3.3400  0.  0.
   336  3.3500  0.  0.
   337  3.3600  0.  0.
   338  3.3700  0.  0.
   339  3.3800  0.  0.
   340  3.3900  0.  0.
   341  3.4000  0.  0.
   342  3.4100  0.  0.
   343  3.4200  0.  0.
   344  3.4300  0.  0.
   345  3.4400  0.  0.
   346  3.4500  0.  0.
   347  3.4600  0.  0.
   348  3.4700  0.  0.
   349  3.4800  0.  0.
   350  3.4900  0.  0.
   351  3.5000  0.  0.
   352  3.5100  0.  0.
   353  3.5200  0.  0.
   354  3.5300  0.  0.
   355  3.5400  0.  0.
   356  3.5500  0.  0.
   357  3.5600  0.  0.
   358  3.5700  0.  0.
   359  3.5800  0.  0.
   360  3.5900  0.  0.
   361  3.6000  0.  0.
   362  3.6100  0.  0.
   363  3.6200  0.  0.
   364  3.6300  0.  0.
   365  3.6400  0.  0.
   366  3.6500  0.  0.
   367  3.6600  0.  0.
   368  3.6700  0.  0.
   369  3.6800  0.  0.
   370  3.6900  0.  0.
   371  3.7000  0.  0.
   372  3.7100  0.  0.
   373  3.7200  0.  0.
   374  3.7300  0.  0.
   375  3.7400  0.  0.
   376  3.7500  0.  0.
   377  3.7600  0.  0.
   378  3.7700  0.  0.
   379  3.7800  0.  0.
   380  3.7900  0.  0.
   381  3.8000  0.  0.
   382  3.8100  0.  0.
   383  3.8200  0.  0.
   384  3.8300  0.  0.
   385  3.8400  0.  0.
   386  3.8500  0.  0.
   387  3.8600  0.  0.
   388  3.8700  0.  0.
   389  3.8800  0.  0.
   390  3.8900  0.  0.
   391  3.9000  0.  0.
   392  3.9100  0.  0.
   393  3.9200  0.  0.
   394  3.9300  0.  0.
   395  3.9400  0.  0.
   396  3.9500  0.  0.
   397  3.9600  0.  0.
   398  3.9700  0.  0.
   399  3.9800  0.  0.
   400  3.9900  0.  0.
   401  4.0000  0.  0.
   402  4.0100  0.  0.
   403  4.0200  0.  0.
   404  4.0300  0.  0.
   405  4.0400  0.  0.
   406  4.0500  0.  0.
   407  4.0600  0.  0.
   408  4.0700  0.  0.
   409  4.0800  0.  0.
   410  4.0900  0.  0.
   411  4.1000  0.  0.
   412  4.1100  0.  0.
   413  4.1200  0.  0.
   414  4.1300  0.  0.
   415  4.1400  0.  0.
   416  4.1500  0.  0.
   417  4.1600  0.  0.
   418  4.1700  0.  0.
   419  4.1800  0.  0.
   420  4.1900  0.  0.
   421  4.2000  0.  0.
   422  4.2100  0.  0.
   423  4.2200  0.  0.
   424  4.2300  0.  0.
   425  4.2400  0.  0.
   426  4.2500  0.  0.
   427  4.2600  0.  0.
   428  4.2700  0.  0.
   429  4.2800  0.  0.
   430  4.2900  0.  0.
   431  4.3000  0.  0.
   432  4.3100  0.  0.
   433  4.3200  0.  0.
   434  4.3300  0.  0.
   435  4.3400  0.  0.
   436  4.3500  0.  0.
   437  4.3600  0.  0.
   438  4.3700  0.  0.
   439  4.3800  0.  0.
   440  4.3900  0.  0.
   441  4.4000  0.  0.
   442  4.4100  0.  0.
   443  4.4200  0.  0.
   444  4.4300  0.  0.
   445  4.4400  0.  0.
   446  4.4500  0.  0.
   447  4.4600  0.  0.
   448  4.4700  0.  0.
   449  4.4800  0.  0.
   450  4.4900  0.  0.
   451  4.5000  0.  0.
   452  4.5100  0.  0.
   453  4.5200  0.  0.
   454  4.5300  0.  0.
   455  4.5400  0.  0.
   456  4.5500  0.  0.
   457  4.5600  0.  0.
   458  4.5700  0.  0.
   459  4.5800  0.  0.
   460  4.5900  0.  0.
   461  4.6000  0.  0.
   462  4.6100  0.  0.
   463  4.6200  0.  0.
   464  4.6300  0.  0.
   465  4.6400  0.  0.
   466  4.6500  0.  0.
   467  4.6600  0.  0.
   468  4.6700  0.  0.
   469  4.6800  0.  0.
   470  4.6900  0.  0.
   471  4.7000  0.  0.
   472  4.7100  0.  0.
   473  4.7200  0.  0.
   474  4.7300  0.  0.
   475  4.7400  0.  0.
   476  4.7500  0.  0.
   477  4.7600  0.  0.
   478  4.7700  0.  0.
   479  4.7800  0.  0.
   480  4.7900  0.  0.
   481  4.8000  0.  0.
   482  4.8100  0.  0.
   483  4.8200  0.  0.
   484  4.8300  0.  0.
   485  4.8400  0.  0.
   486  4.8500  0.  0.
   487  4.8600  0.  0.
   488  4.8700  0.  0.
   489  4.8800  0.  0.
   490  4.8900  0.  0.
   491  4.9000  0.  0.
   492  4.9100  0.  0.
   493  4.9200  0.  0.
   494  4.9300  0.  0.
   495  4.9400  0.  0.
   496  4.9500  0.  0.
   497  4.9600  0.  0.
   498  4.9700  0.  0.
   499  4.9800  0.  0.
   500  4.9900  0.  0.
   501  5.0000  0.  0.
   502  5.0100  0.  0.
   503  5.0200  0.  0.
   504  5.0300  0.  0.
   505  5.0400  0.  0.
   506  5.0500  0.  0.
   507  5.0600  0.  0.
   508  5.0700  0.  0.
   509  5.0800  0.  0.
   510  5.0900  0.  0.
   511  5.1000  0.  0.
   512  5.1100  0.  0.
   513  5.1200  0.  0.
   514  5.1300  0.  0.
   515  5.1400  0.  0.
   516  5.1500  0.  0.
   517  5.1600  0.  0.
   518  5.1700  0.  0.
   519  5.1800  0.  0.
   520  5.1900  0.  0.
   521  5.2000  0.  0.
   522  5.2100  0.  0.
   523  5.2200  0.  0.
   524  5.2300  0.  0.
   525  5.2400  0.  0.
   526  5.2500  0.  0.
   527  5.2600  0.  0.
   528  5.2700  0.  0.
   529  5.2800  0.  0.
   530  5.2900  0.  0.
   531  5.3000  0.  0.
   532  5.3100  0.  0.
   533  5.3200  0.  0.
   534  5.3300  0.  0.
   535  5.3400  0.  0.
   536  5.3500  0.  0.
   537  5.3600  0.  0.
   538  5.3700  0.  0.
   539  5.3800  0.  0.
   540  5.3900  0.  0.
   541  5.4000  0.  0.
   542  5.4100  0.  0.
   543  5.4200  0.  0.
   544  5.4300  0.  0.
   545  5.4400  0.  0.
   546  5.4500  0.  0.
   547  5.4600  0.  0.
   548  5.4700  0.  0.
   549  5.4800  0.  0.
   550  5.4900  0.  0.
   551  5.5000  0.  0.
   552  5.5100  0.  0.
   553  5.5200  0.  0.
   554  5.5300  0.  0.
   555  5.5400  0.  0.
   556  5.5500  0.  0.
   557  5.5600  0.  0.
   558  5.5700  0.  0.
   559  5.5800  0.  0.
   560  5.5900  0.  0.
   561  5.6000  0.  0.
   562  5.6100  0.  0.
   563  5.6200  0.  0.
   564  5.6300  0.  0.
   565  5.6400  0.  0.
   566  5.6500  0.  0.
   567  5.6600  0.  0.
   568  5.6700  0.  0.
   569  5.6800  0.  0.
   570  5.6900  0.  0.
   571  5.7000  0.  0.
   572  5.7100  0.  0.
   573  5.7200  0.  0.
   574  5.7300  0.  0.
   575  5.7400  0.  0.
   576  5.7500  0.  0.
   577  5.7600  0.  0.
   578  5.7700  0.  0.
   579  5.7800  0.  0.
   580  5.7900  0.  0.
   581  5.8000  0.  0.
   582  5.8100  0.  0.
   583  5.8200  0.  0.
   584  5.8300  0.  0.
   585  5.8400  0.  0.
   586  5.8500  0.  0.
   587  5.8600  0.  0.
   588  5.8700  0.  0.
   589  5.8800  0.  0.
   590  5.8900  0.  0.
   591  5.9000  0.  0.
   592  5.9100  0.  0.
   593  5.9200  0.  0.
   594  5.9300  0.  0.
   595  5.9400  0.  0.
   596  5.9500  0.  0.
   597  5.9600  0.  0.
   598  5.9700  0.  0.
   599  5.9800  0.  0.
   600  5.9900  0.  0.
   1                         4.6058692957313E+00  4.6543212281799E-01
     1  0.0000000000000E+00 -1.2058368192847E-11  2.4954725785786E-11
     2  1.0000000000000E-02  2.8495738925935E-04 -2.0465960651748E-04
     3  2.0000000000000E-02  1.1397456138356E-03 -8.1855036973640E-04
     4  3.0000000000000E-02  2.5641118188842E-03 -1.8414063015811E-03
     5  4.0000000000000E-02  4.5576311684750E-03 -3.2727780380456E-03
     6  5.0000000000000E-02  7.1197017507418E-03 -5.1120238089347E-03
     7  6.0000000000000E-02  1.0249537488849E-02 -7.3582968863906E-03
     8  7.0000000000000E-02  1.3946159101304E-02 -1.0010529602553E-02
     9  8.0000000000000E-02  1.8208383167201E-02 -1.3067414051665E-02
    10  9.0000000000000E-02  2.3034809363847E-02 -1.6527379616406E-02
    11  1.0000000000000E-01  2.8423805955688E-02 -2.0388567481897E-02
    12  1.1000000000000E-01  3.4373493624652E-02 -2.4648802323676E-02
    13  1.2000000000000E-01  4.0881727742686E-02 -2.9305561377834E-02
    14  1.3000000000000E-01  4.7946079197569E-02 -3.4355941122270E-02
    15  1.4000000000000E-01  5.5563813892783E-02 -3.9796621817701E-02
    16  1.5000000000000E-01  6.3731871051370E-02 -4.5623830175242E-02
    17  1.6000000000000E-01  7.2446840462299E-02 -5.1833300434404E-02
    18  1.7000000000000E-01  8.1704938815684E-02 -5.8420234150615E-02
    19  1.8000000000000E-01  9.1501985280447E-02 -6.5379259005304E-02
    20  1.9000000000000E-01  1.0183337648444E-01 -7.2704386963599E-02