Sb    ONCVPSP-4.0.1  r_core=   2.41107   2.31219   2.31219   2.31219
     51.0000     15.0000      210707    zatom,zion,pspd
     8      11   3     4   600     0    pspcod,pspxc,lmax,lloc,mmax,r2well
  5.99000000  5.00000000  0.00000000    rchrg fchrg qchrg
     2     2     2     2     0    nproj
     1     1           extension_switch
   0                         4.4966595446592E+00  4.1865850823954E-01
     1  0.0000000000000E+00 -9.5077890005513E-11  2.6642590911230E-10
     2  1.0000000000000E-02  2.4605632723238E-02 -7.8076644284540E-03
     3  2.0000000000000E-02  4.9183499199169E-02 -1.5569113062093E-02
     4  3.0000000000000E-02  7.3706055731507E-02 -2.3238677199182E-02
     5  4.0000000000000E-02  9.8146201353309E-02 -3.0771775995268E-02
     6  5.0000000000000E-02  1.2247749328428E-01 -3.8125444637967E-02
     7  6.0000000000000E-02  1.4667435536727E-01 -4.5258843807845E-02
     8  7.0000000000000E-02  1.7071227725617E-01 -5.2133744503108E-02
     9  8.0000000000000E-02  1.9456800222285E-01 -5.8714982572265E-02
    10  9.0000000000000E-02  2.1821970156728E-01 -6.4970877626672E-02
    11  1.0000000000000E-01  2.4164713375339E-01 -7.0873611390604E-02
    12  1.1000000000000E-01  2.6483178655000E-01 -7.6399560986293E-02
    13  1.2000000000000E-01  2.8775700063178E-01 -8.1529583140464E-02
    14  1.3000000000000E-01  3.1040807328578E-01 -8.6249245832342E-02
    15  1.4000000000000E-01  3.3277234107520E-01 -9.0549004475344E-02
    16  1.5000000000000E-01  3.5483924052886E-01 -9.4424320329734E-02
    17  1.6000000000000E-01  3.7660034615293E-01 -9.7875719474937E-02
    18  1.7000000000000E-01  3.9804938529606E-01 -1.0090879132172E-01
    19  1.8000000000000E-01  4.1918222963984E-01 -1.0353412630884E-01
    20  1.9000000000000E-01  4.3999686332954E-01 -1.0576719309956E-01
    21  2.0000000000000E-01  4.6049332800384E-01 -1.0762815626270E-01
    22  2.1000000000000E-01  4.8067364522406E-01 -1.0914163608515E-01
    23  2.2000000000000E-01  5.0054171704022E-01 -1.1033641280898E-01
    24  2.3000000000000E-01  5.2010320566196E-01 -1.1124507821139E-01
    25  2.4000000000000E-01  5.3936539342300E-01 -1.1190363804234E-01
    26  2.5000000000000E-01  5.5833702443777E-01 -1.1235106939592E-01
    27  2.6000000000000E-01  5.7702812954448E-01 -1.1262883761262E-01
    28  2.7000000000000E-01  5.9544983630957E-01 -1.1278037778365E-01
    29  2.8000000000000E-01  6.1361416603093E-01 -1.1285054635130E-01
    30  2.9000000000000E-01  6.3153381982152E-01 -1.1288504866527E-01
    31  3.0000000000000E-01  6.4922195597752E-01 -1.1292984866115E-01
    32  3.1000000000000E-01  6.6669196093652E-01 -1.1303056706897E-01
    33  3.2000000000000E-01  6.8395721620924E-01 -1.1323187473516E-01
    34  3.3000000000000E-01  7.0103086372229E-01 -1.1357688774770E-01
    35  3.4000000000000E-01  7.1792557203915E-01 -1.1410657109027E-01
    36  3.5000000000000E-01  7.3465330593119E-01 -1.1485915751622E-01
    37  3.6000000000000E-01  7.5122510175030E-01 -1.1586958822729E-01
    38  3.7000000000000E-01  7.6765085100938E-01 -1.1716898176525E-01
    39  3.8000000000000E-01  7.8393909450707E-01 -1.1878413727964E-01
    40  3.9000000000000E-01  8.0009682923957E-01 -1.2073707802229E-01
    41  4.0000000000000E-01  8.1612933022540E-01 -1.2304464054345E-01
    42  4.1000000000000E-01  8.3203998923015E-01 -1.2571811462792E-01
    43  4.2000000000000E-01  8.4783017221886E-01 -1.2876293851652E-01
    44  4.3000000000000E-01  8.6349909718479E-01 -1.3217845341453E-01
    45  4.4000000000000E-01  8.7904373380730E-01 -1.3595772069803E-01
    46  4.5000000000000E-01  8.9445872617978E-01 -1.4008740459817E-01
    47  4.6000000000000E-01  9.0973633962304E-01 -1.4454772247922E-01
    48  4.7000000000000E-01  9.2486643236327E-01 -1.4931246413294E-01
    49  4.8000000000000E-01  9.3983645260779E-01 -1.5434908079986E-01
    50  4.9000000000000E-01  9.5463146129938E-01 -1.5961884390141E-01
    51  5.0000000000000E-01  9.6923418057379E-01 -1.6507707273482E-01
    52  5.1000000000000E-01  9.8362506768690E-01 -1.7067342965231E-01
    53  5.2000000000000E-01  9.9778241392064E-01 -1.7635228052476E-01
    54  5.3000000000000E-01  1.0116824677237E+00 -1.8205311758490E-01
    55  5.4000000000000E-01  1.0252995810948E+00 -1.8771104106448E-01
    56  5.5000000000000E-01  1.0386063779784E+00 -1.9325729538994E-01
    57  5.6000000000000E-01  1.0515739432133E+00 -1.9861985508913E-01
    58  5.7000000000000E-01  1.0641720303610E+00 -2.0372405499452E-01
    59  5.8000000000000E-01  1.0763692865405E+00 -2.0849325881173E-01
    60  5.9000000000000E-01  1.0881334922154E+00 -2.1284955966151E-01
    61  6.0000000000000E-01  1.0994318137157E+00 -2.1671450580521E-01
    62  6.1000000000000E-01  1.1102310661360E+00 -2.2000984443031E-01
    63  6.2000000000000E-01  1.1204979841330E+00 -2.2265827611035E-01
    64  6.3000000000000E-01  1.1301994980502E+00 -2.2458421236371E-01
    65  6.4000000000000E-01  1.1393030127282E+00 -2.2571452862210E-01
    66  6.5000000000000E-01  1.1477766863144E+00 -2.2597930488293E-01
    67  6.6000000000000E-01  1.1555897063689E+00 -2.2531254636255E-01
    68  6.7000000000000E-01  1.1627125605710E+00 -2.2365287658763E-01
    69  6.8000000000000E-01  1.1691172993672E+00 -2.2094419556172E-01
    70  6.9000000000000E-01  1.1747777879645E+00 -2.1713629591965E-01
    71  7.0000000000000E-01  1.1796699451574E+00 -2.1218543033352E-01
    72  7.1000000000000E-01  1.1837719665955E+00 -2.0605482385615E-01
    73  7.2000000000000E-01  1.1870645302304E+00 -1.9871512537919E-01
    74  7.3000000000000E-01  1.1895309818472E+00 -1.9014479293708E-01
    75  7.4000000000000E-01  1.1911574987619E+00 -1.8033040820174E-01
    76  7.5000000000000E-01  1.1919332299741E+00 -1.6926691617947E-01
    77  7.6000000000000E-01  1.1918504112803E+00 -1.5695778683456E-01
    78  7.7000000000000E-01  1.1909044540910E+00 -1.4341509611818E-01
    79  7.8000000000000E-01  1.1890940069458E+00 -1.2865952466728E-01
    80  7.9000000000000E-01  1.1864209889786E+00 -1.1272027325056E-01
    81  8.0000000000000E-01  1.1828905948599E+00 -9.5634894867435E-02
    82  8.1000000000000E-01  1.1785112710142E+00 -7.7449044245279E-02
    83  8.2000000000000E-01  1.1732946631964E+00 -5.8216146319399E-02
    84  8.3000000000000E-01  1.1672555357855E+00 -3.7996986112904E-02
    85  8.4000000000000E-01  1.1604116634386E+00 -1.6859223250139E-02
    86  8.5000000000000E-01  1.1527836960189E+00  5.1231648700349E-03
    87  8.6000000000000E-01  1.1443949979789E+00  2.7870506454429E-02
    88  8.7000000000000E-01  1.1352714636382E+00  5.1298119742197E-02
    89  8.8000000000000E-01  1.1254413100379E+00  7.5317052297976E-02
    90  8.9000000000000E-01  1.1149348492836E+00  9.9834868373738E-02
    91  9.0000000000000E-01  1.1037842425011E+00  1.2475647698480E-01
    92  9.1000000000000E-01  1.0920232377199E+00  1.4998499285610E-01
    93  9.2000000000000E-01  1.0796868941724E+00  1.7542262197908E-01
    94  9.3000000000000E-01  1.0668112956403E+00  2.0097156318088E-01
    95  9.4000000000000E-01  1.0534332556078E+00  2.2653491685117E-01
    96  9.5000000000000E-01  1.0395900170698E+00  2.5201759180102E-01
    97  9.6000000000000E-01  1.0253189499200E+00  2.7732720114475E-01
    98  9.7000000000000E-01  1.0106572488766E+00  3.0237493810157E-01
    99  9.8000000000000E-01  9.9564163492158E-01  3.2707642271095E-01
   100  9.9000000000000E-01  9.8030806320680E-01  3.5135251064121E-01
   101  1.0000000000000E+00  9.6469144033767E-01  3.7513005554781E-01
   102  1.0100000000000E+00  9.4882535386682E-01  3.9834261680054E-01
   103  1.0200000000000E+00  9.3274181672863E-01  4.2093110484690E-01
   104  1.0300000000000E+00  9.1647102921344E-01  4.4284435700879E-01
   105  1.0400000000000E+00  9.0004116092301E-01  4.6403963711501E-01
   106  1.0500000000000E+00  8.8347815496699E-01  4.8448305305054E-01
   107  1.0600000000000E+00  8.6680555645398E-01  5.0414988704620E-01
   108  1.0700000000000E+00  8.5004436710369E-01  5.2302483433625E-01
   109  1.0800000000000E+00  8.3321292756076E-01  5.4110214666396E-01
   110  1.0900000000000E+00  8.1632682872610E-01  5.5838567801603E-01
   111  1.1000000000000E+00  7.9939885314420E-01  5.7488883089889E-01
   112  1.1100000000000E+00  7.8243894719365E-01  5.9063440243279E-01
   113  1.1200000000000E+00  7.6545422452879E-01  6.0565433051783E-01
   114  1.1300000000000E+00  7.4844900091372E-01  6.1998934131413E-01
   115  1.1400000000000E+00  7.3142486028023E-01  6.3368850026565E-01
   116  1.1500000000000E+00  7.1438075153066E-01  6.4680866987258E-01
   117  1.1600000000000E+00  6.9731311529854E-01  6.5941387837475E-01
   118  1.1700000000000E+00  6.8021603957729E-01  6.7157460443405E-01
   119  1.1800000000000E+00  6.6308144283305E-01  6.8336698379264E-01
   120  1.1900000000000E+00  6.4589928293428E-01  6.9487194472411E-01
   121  1.2000000000000E+00  6.2865778996267E-01  7.0617427987689E-01
   122  1.2100000000000E+00  6.1134372071650E-01  7.1736166283166E-01
   123  1.2200000000000E+00  5.9394263248638E-01  7.2852361833787E-01
   124  1.2300000000000E+00  5.7643917347065E-01  7.3975045576606E-01
   125  1.2400000000000E+00  5.5881738701140E-01  7.5113217579366E-01
   126  1.2500000000000E+00  5.4106102667079E-01  7.6275736073395E-01
   127  1.2600000000000E+00  5.2315387903290E-01  7.7471205921544E-01
   128  1.2700000000000E+00  5.0508009101235E-01  7.8707867611507E-01
   129  1.2800000000000E+00  4.8682449837619E-01  7.9993487874389E-01
   130  1.2900000000000E+00  4.6837295214236E-01  8.1335253027482E-01
   131  1.3000000000000E+00  4.4971263950677E-01  8.2739666128708E-01
   132  1.3100000000000E+00  4.3083239597174E-01  8.4212449008343E-01
   133  1.3200000000000E+00  4.1172300540151E-01  8.5758450211122E-01
   134  1.3300000000000E+00  3.9237748481578E-01  8.7381559839323E-01
   135  1.3400000000000E+00  3.7279135084762E-01  8.9084632235048E-01
   136  1.3500000000000E+00  3.5296286493975E-01  9.0869417377738E-01
   137  1.3600000000000E+00  3.3289325452840E-01  9.2736501802043E-01
   138  1.3700000000000E+00  3.1258690766791E-01  9.4685259761700E-01
   139  1.3800000000000E+00  2.9205153877850E-01  9.6713815278043E-01
   140  1.3900000000000E+00  2.7129832345383E-01  9.8819015617198E-01
   141  1.4000000000000E+00  2.5034200054015E-01  1.0099641663986E+00
   142  1.4100000000000E+00  2.2920093999373E-01  1.0324028036162E+00
   143  1.4200000000000E+00  2.0789717533411E-01  1.0554358495194E+00
   144  1.4300000000000E+00  1.8645639983640E-01  1.0789804728607E+00
   145  1.4400000000000E+00  1.6490792594182E-01  1.1029415804860E+00
   146  1.4500000000000E+00  1.4328460770894E-01  1.1272122926996E+00
   147  1.4600000000000E+00  1.2162272647624E-01  1.1516745406022E+00
   148  1.4700000000000E+00  9.9961840256888E-02  1.1761997818754E+00
   149  1.4800000000000E+00  7.8344597731772E-02  1.2006498303509E+00
   150  1.4900000000000E+00  5.6816518051375E-02  1.2248777935777E+00
   151  1.5000000000000E+00  3.5425737988603E-02  1.2487291115390E+00
   152  1.5100000000000E+00  1.4222728306813E-02  1.2720426886433E+00
   153  1.5200000000000E+00 -6.7400184862422E-03  1.2946521101604E+00
   154  1.5300000000000E+00 -2.7408326539119E-02  1.3163869333833E+00
   155  1.5400000000000E+00 -4.7726698484785E-02  1.3370740429924E+00
   156  1.5500000000000E+00 -6.7638697723909E-02  1.3565390593787E+00
   157  1.5600000000000E+00 -8.7087347973178E-02  1.3746077880624E+00
   158  1.5700000000000E+00 -1.0601554669688E-01  1.3911076978209E+00
   159  1.5800000000000E+00 -1.2436648887987E-01  1.4058694147314E+00
   160  1.5900000000000E+00 -1.4208409747079E-01  1.4187282190341E+00
   161  1.6000000000000E+00 -1.5911345672868E-01  1.4295255315380E+00
   162  1.6100000000000E+00 -1.7540124464415E-01  1.4381103762345E+00
   163  1.6200000000000E+00 -1.9089616057976E-01  1.4443408058356E+00
   164  1.6300000000000E+00 -2.0554934428271E-01  1.4480852771414E+00
   165  1.6400000000000E+00 -2.1931478246734E-01  1.4492239634355E+00
   166  1.6500000000000E+00 -2.3214969924440E-01  1.4476499915343E+00
   167  1.6600000000000E+00 -2.4401492678844E-01  1.4432705916460E+00
   168  1.6700000000000E+00 -2.5487525278311E-01  1.4360081488499E+00
   169  1.6800000000000E+00 -2.6469974136500E-01  1.4258011457588E+00
   170  1.6900000000000E+00 -2.7346202449918E-01  1.4126049867857E+00
   171  1.7000000000000E+00 -2.8114056096132E-01  1.3963926953884E+00
   172  1.7100000000000E+00 -2.8771886037031E-01  1.3771554767021E+00
   173  1.7200000000000E+00 -2.9318567000950E-01  1.3549031390848E+00
   174  1.7300000000000E+00 -2.9753512249126E-01  1.3296643692842E+00
   175  1.7400000000000E+00 -3.0076684265561E-01  1.3014868571751E+00
   176  1.7500000000000E+00 -3.0288601244646E-01  1.2704372673011E+00
   177  1.7600000000000E+00 -3.0390339287509E-01  1.2366010557797E+00
   178  1.7700000000000E+00 -3.0383530255667E-01  1.2000821324741E+00
   179  1.7800000000000E+00 -3.0270355268849E-01  1.1610023696916E+00
   180  1.7900000000000E+00 -3.0053533872457E-01  1.1195009600270E+00
   181  1.8000000000000E+00 -2.9736308938672E-01  1.0757336273111E+00
   182  1.8100000000000E+00 -2.9322427403409E-01  1.0298716959437E+00
   183  1.8200000000000E+00 -2.8816116978690E-01  9.8210102517038E-01
   184  1.8300000000000E+00 -2.8222059016339E-01  9.3262081609487E-01
   185  1.8400000000000E+00 -2.7545357733871E-01  8.8164230039131E-01
   186  1.8500000000000E+00 -2.6791506046224E-01  8.2938732077064E-01
   187  1.8600000000000E+00 -2.5966348278504E-01  7.7608681428808E-01
   188  1.8700000000000E+00 -2.5076040063198E-01  7.2197921049086E-01
   189  1.8800000000000E+00 -2.4127005751473E-01  6.6730875723629E-01
   190  1.8900000000000E+00 -2.3125893691285E-01  6.1232378772508E-01
   191  1.9000000000000E+00 -2.2079529745031E-01  5.5727494289546E-01
   192  1.9100000000000E+00 -2.0994869436191E-01  5.0241336380252E-01
   193  1.9200000000000E+00 -1.9878949127596E-01  4.4798886895959E-01
   194  1.9300000000000E+00 -1.8738836643644E-01  3.9424813183883E-01
   195  1.9400000000000E+00 -1.7581581754560E-01  3.4143287381610E-01
   196  1.9500000000000E+00 -1.6414166943142E-01  2.8977808780273E-01
   197  1.9600000000000E+00 -1.5243458872595E-01  2.3951030761934E-01
   198  1.9700000000000E+00 -1.4076160968650E-01  1.9084593785472E-01
   199  1.9800000000000E+00 -1.2918767519948E-01  1.4398965850444E-01
   200  1.9900000000000E+00 -1.1777519687799E-01  9.9132918109842E-02
   201  2.0000000000000E+00 -1.0658363799657E-01  5.6452528406228E-02
   202  2.0100000000000E+00 -9.5669122812009E-02  1.6109372691135E-02
   203  2.0200000000000E+00 -8.5084075586063E-02 -2.1752760813814E-02
   204  2.0300000000000E+00 -7.4876892359111E-02 -5.7008210382732E-02
   205  2.0400000000000E+00 -6.5091648238862E-02 -8.9550327869124E-02
   206  2.0500000000000E+00 -5.5767842651198E-02 -1.1929221355257E-01
   207  2.0600000000000E+00 -4.6940184652677E-02 -1.4616729216750E-01
   208  2.0700000000000E+00 -3.8638420065227E-02 -1.7012972481156E-01
   209  2.0800000000000E+00 -3.0887201800997E-02 -1.9115465289983E-01
   210  2.0900000000000E+00 -2.3706004361239E-02 -2.0923827175821E-01
   211  2.1000000000000E+00 -1.7109083102784E-02 -2.2439773289144E-01
   212  2.1100000000000E+00 -1.1105478450741E-02 -2.3667087548613E-01
   213  2.1200000000000E+00 -5.6990648449638E-03 -2.4611578913889E-01
   214  2.1300000000000E+00 -8.8864380273225E-04 -2.5281021127472E-01
   215  2.1400000000000E+00  3.3319199365316E-03 -2.5685076422898E-01
   216  2.1500000000000E+00  6.9735205830226E-03 -2.5835203827976E-01
   217  2.1600000000000E+00  1.0051593585808E-02 -2.5744552836150E-01
   218  2.1700000000000E+00  1.2585860161257E-02 -2.5427843333638E-01
   219  2.1800000000000E+00  1.4600036566282E-02 -2.4901232806512E-01
   220  2.1900000000000E+00  1.6121510918634E-02 -2.4182171956517E-01
   221  2.2000000000000E+00  1.7180990662849E-02 -2.3289249958511E-01
   222  2.2100000000000E+00  1.7812124042126E-02 -2.2242030683526E-01
   223  2.2200000000000E+00  1.8051099163838E-02 -2.1060881290173E-01
   224  2.2300000000000E+00  1.7936224471926E-02 -1.9766794663914E-01
   225  2.2400000000000E+00  1.7507494579504E-02 -1.8381207230451E-01
   226  2.2500000000000E+00  1.6806150353792E-02 -1.6925815191119E-01
   227  2.2600000000000E+00  1.5874196421832E-02 -1.5422378166278E-01
   228  2.2700000000000E+00  1.4754027434672E-02 -1.3892557096597E-01
   229  2.2800000000000E+00  1.3487890675422E-02 -1.2357702941485E-01
   230  2.2900000000000E+00  1.2117353458146E-02 -1.0838648426284E-01
   231  2.3000000000000E+00  1.0680330914571E-02 -9.3547499231956E-02
   232  2.3100000000000E+00  9.2129691015919E-03 -7.9244268177700E-02
   233  2.3200000000000E+00  7.7543421712645E-03 -6.5665666333209E-02
   234  2.3300000000000E+00  6.3412572947259E-03 -5.2988737698859E-02
   235  2.3400000000000E+00  5.0075069246235E-03 -4.1375884172912E-02
   236  2.3500000000000E+00  3.7837714173800E-03 -3.0974166239225E-02
   237  2.3600000000000E+00  2.6972572127487E-03 -2.1913962359072E-02
   238  2.3700000000000E+00  1.7716043817390E-03 -1.4309363435731E-02
   239  2.3800000000000E+00  1.0260302135970E-03 -8.2522143989438E-03
   240  2.3900000000000E+00  4.7241904408215E-04 -3.7895893149102E-03
   241  2.4000000000000E+00  1.3710677502751E-04 -1.0988186871042E-03
   242  2.4100000000000E+00  5.2543955333257E-06 -4.2703043912605E-05
   243  2.4200000000000E+00 -8.7267169842216E-06  6.9559216254892E-05
   244  2.4300000000000E+00  3.0202335651719E-06 -2.4092434733699E-05
   245  2.4400  0. -0.
   246  2.4500 -0.  0.
   247  2.4600  0. -0.
   248  2.4700  0.  0.
   249  2.4800  0.  0.
   250  2.4900  0.  0.
   251  2.5000  0.  0.
   252  2.5100  0.  0.
   253  2.5200  0.  0.
   254  2.5300  0.  0.
   255  2.5400  0.  0.
   256  2.5500  0.  0.
   257  2.5600  0.  0.
   258  2.5700  0.  0.
   259  2.5800  0.  0.
   260  2.5900  0.  0.
   261  2.6000  0.  0.
   262  2.6100  0.  0.
   263  2.6200  0.  0.
   264  2.6300  0.  0.
   265  2.6400  0.  0.
   266  2.6500  0.  0.
   267  2.6600  0.  0.
   268  2.6700  0.  0.
   269  2.6800  0.  0.
   270  2.6900  0.  0.
   271  2.7000  0.  0.
   272  2.7100  0.  0.
   273  2.7200  0.  0.
   274  2.7300  0.  0.
   275  2.7400  0.  0.
   276  2.7500  0.  0.
   277  2.7600  0.  0.
   278  2.7700  0.  0.
   279  2.7800  0.  0.
   280  2.7900  0.  0.
   281  2.8000  0.  0.
   282  2.8100  0.  0.
   283  2.8200  0.  0.
   284  2.8300  0.  0.
   285  2.8400  0.  0.
   286  2.8500  0.  0.
   287  2.8600  0.  0.
   288  2.8700  0.  0.
   289  2.8800  0.  0.
   290  2.8900  0.  0.
   291  2.9000  0.  0.
   292  2.9100  0.  0.
   293  2.9200  0.  0.
   294  2.9300  0.  0.
   295  2.9400  0.  0.
   296  2.9500  0.  0.
   297  2.9600  0.  0.
   298  2.9700  0.  0.
   299  2.9800  0.  0.
   300  2.9900  0.  0.
   301  3.0000  0.  0.
   302  3.0100  0.  0.
   303  3.0200  0.  0.
   304  3.0300  0.  0.
   305  3.0400  0.  0.
   306  3.0500  0.  0.
   307  3.0600  0.  0.
   308  3.0700  0.  0.
   309  3.0800  0.  0.
   310  3.0900  0.  0.
   311  3.1000  0.  0.
   312  3.1100  0.  0.
   313  3.1200  0.  0.
   314  3.1300  0.  0.
   315  3.1400  0.  0.
   316  3.1500  0.  0.
   317  3.1600  0.  0.
   318  3.1700  0.  0.
   319  3.1800  0.  0.
   320  3.1900  0.  0.
   321  3.2000  0.  0.
   322  3.2100  0.  0.
   323  3.2200  0.  0.
   324  3.2300  0.  0.
   325  3.2400  0.  0.
   326  3.2500  0.  0.
   327  3.2600  0.  0.
   328  3.2700  0.  0.
   329  3.2800  0.  0.
   330  3.2900  0.  0.
   331  3.3000  0.  0.
   332  3.3100  0.  0.
   333  3.3200  0.  0.
   334  3.3300  0.  0.
   335  3.3400  0.  0.
   336  3.3500  0.  0.
   337  3.3600  0.  0.
   338  3.3700  0.  0.
   339  3.3800  0.  0.
   340  3.3900  0.  0.
   341  3.4000  0.  0.
   342  3.4100  0.  0.
   343  3.4200  0.  0.
   344  3.4300  0.  0.
   345  3.4400  0.  0.
   346  3.4500  0.  0.
   347  3.4600  0.  0.
   348  3.4700  0.  0.
   349  3.4800  0.  0.
   350  3.4900  0.  0.
   351  3.5000  0.  0.
   352  3.5100  0.  0.
   353  3.5200  0.  0.
   354  3.5300  0.  0.
   355  3.5400  0.  0.
   356  3.5500  0.  0.
   357  3.5600  0.  0.
   358  3.5700  0.  0.
   359  3.5800  0.  0.
   360  3.5900  0.  0.
   361  3.6000  0.  0.
   362  3.6100  0.  0.
   363  3.6200  0.  0.
   364  3.6300  0.  0.
   365  3.6400  0.  0.
   366  3.6500  0.  0.
   367  3.6600  0.  0.
   368  3.6700  0.  0.
   369  3.6800  0.  0.
   370  3.6900  0.  0.
   371  3.7000  0.  0.
   372  3.7100  0.  0.
   373  3.7200  0.  0.
   374  3.7300  0.  0.
   375  3.7400  0.  0.
   376  3.7500  0.  0.
   377  3.7600  0.  0.
   378  3.7700  0.  0.
   379  3.7800  0.  0.
   380  3.7900  0.  0.
   381  3.8000  0.  0.
   382  3.8100  0.  0.
   383  3.8200  0.  0.
   384  3.8300  0.  0.
   385  3.8400  0.  0.
   386  3.8500  0.  0.
   387  3.8600  0.  0.
   388  3.8700  0.  0.
   389  3.8800  0.  0.
   390  3.8900  0.  0.
   391  3.9000  0.  0.
   392  3.9100  0.  0.
   393  3.9200  0.  0.
   394  3.9300  0.  0.
   395  3.9400  0.  0.
   396  3.9500  0.  0.
   397  3.9600  0.  0.
   398  3.9700  0.  0.
   399  3.9800  0.  0.
   400  3.9900  0.  0.
   401  4.0000  0.  0.
   402  4.0100  0.  0.
   403  4.0200  0.  0.
   404  4.0300  0.  0.
   405  4.0400  0.  0.
   406  4.0500  0.  0.
   407  4.0600  0.  0.
   408  4.0700  0.  0.
   409  4.0800  0.  0.
   410  4.0900  0.  0.
   411  4.1000  0.  0.
   412  4.1100  0.  0.
   413  4.1200  0.  0.
   414  4.1300  0.  0.
   415  4.1400  0.  0.
   416  4.1500  0.  0.
   417  4.1600  0.  0.
   418  4.1700  0.  0.
   419  4.1800  0.  0.
   420  4.1900  0.  0.
   421  4.2000  0.  0.
   422  4.2100  0.  0.
   423  4.2200  0.  0.
   424  4.2300  0.  0.
   425  4.2400  0.  0.
   426  4.2500  0.  0.
   427  4.2600  0.  0.
   428  4.2700  0.  0.
   429  4.2800  0.  0.
   430  4.2900  0.  0.
   431  4.3000  0.  0.
   432  4.3100  0.  0.
   433  4.3200  0.  0.
   434  4.3300  0.  0.
   435  4.3400  0.  0.
   436  4.3500  0.  0.
   437  4.3600  0.  0.
   438  4.3700  0.  0.
   439  4.3800  0.  0.
   440  4.3900  0.  0.
   441  4.4000  0.  0.
   442  4.4100  0.  0.
   443  4.4200  0.  0.
   444  4.4300  0.  0.
   445  4.4400  0.  0.
   446  4.4500  0.  0.
   447  4.4600  0.  0.
   448  4.4700  0.  0.
   449  4.4800  0.  0.
   450  4.4900  0.  0.
   451  4.5000  0.  0.
   452  4.5100  0.  0.
   453  4.5200  0.  0.
   454  4.5300  0.  0.
   455  4.5400  0.  0.
   456  4.5500  0.  0.
   457  4.5600  0.  0.
   458  4.5700  0.  0.
   459  4.5800  0.  0.
   460  4.5900  0.  0.
   461  4.6000  0.  0.
   462  4.6100  0.  0.
   463  4.6200  0.  0.
   464  4.6300  0.  0.
   465  4.6400  0.  0.
   466  4.6500  0.  0.
   467  4.6600  0.  0.
   468  4.6700  0.  0.
   469  4.6800  0.  0.
   470  4.6900  0.  0.
   471  4.7000  0.  0.
   472  4.7100  0.  0.
   473  4.7200  0.  0.
   474  4.7300  0.  0.
   475  4.7400  0.  0.
   476  4.7500  0.  0.
   477  4.7600  0.  0.
   478  4.7700  0.  0.
   479  4.7800  0.  0.
   480  4.7900  0.  0.
   481  4.8000  0.  0.
   482  4.8100  0.  0.
   483  4.8200  0.  0.
   484  4.8300  0.  0.
   485  4.8400  0.  0.
   486  4.8500  0.  0.
   487  4.8600  0.  0.
   488  4.8700  0.  0.
   489  4.8800  0.  0.
   490  4.8900  0.  0.
   491  4.9000  0.  0.
   492  4.9100  0.  0.
   493  4.9200  0.  0.
   494  4.9300  0.  0.
   495  4.9400  0.  0.
   496  4.9500  0.  0.
   497  4.9600  0.  0.
   498  4.9700  0.  0.
   499  4.9800  0.  0.
   500  4.9900  0.  0.
   501  5.0000  0.  0.
   502  5.0100  0.  0.
   503  5.0200  0.  0.
   504  5.0300  0.  0.
   505  5.0400  0.  0.
   506  5.0500  0.  0.
   507  5.0600  0.  0.
   508  5.0700  0.  0.
   509  5.0800  0.  0.
   510  5.0900  0.  0.
   511  5.1000  0.  0.
   512  5.1100  0.  0.
   513  5.1200  0.  0.
   514  5.1300  0.  0.
   515  5.1400  0.  0.
   516  5.1500  0.  0.
   517  5.1600  0.  0.
   518  5.1700  0.  0.
   519  5.1800  0.  0.
   520  5.1900  0.  0.
   521  5.2000  0.  0.
   522  5.2100  0.  0.
   523  5.2200  0.  0.
   524  5.2300  0.  0.
   525  5.2400  0.  0.
   526  5.2500  0.  0.
   527  5.2600  0.  0.
   528  5.2700  0.  0.
   529  5.2800  0.  0.
   530  5.2900  0.  0.
   531  5.3000  0.  0.
   532  5.3100  0.  0.
   533  5.3200  0.  0.
   534  5.3300  0.  0.
   535  5.3400  0.  0.
   536  5.3500  0.  0.
   537  5.3600  0.  0.
   538  5.3700  0.  0.
   539  5.3800  0.  0.
   540  5.3900  0.  0.
   541  5.4000  0.  0.
   542  5.4100  0.  0.
   543  5.4200  0.  0.
   544  5.4300  0.  0.
   545  5.4400  0.  0.
   546  5.4500  0.  0.
   547  5.4600  0.  0.
   548  5.4700  0.  0.
   549  5.4800  0.  0.
   550  5.4900  0.  0.
   551  5.5000  0.  0.
   552  5.5100  0.  0.
   553  5.5200  0.  0.
   554  5.5300  0.  0.
   555  5.5400  0.  0.
   556  5.5500  0.  0.
   557  5.5600  0.  0.
   558  5.5700  0.  0.
   559  5.5800  0.  0.
   560  5.5900  0.  0.
   561  5.6000  0.  0.
   562  5.6100  0.  0.
   563  5.6200  0.  0.
   564  5.6300  0.  0.
   565  5.6400  0.  0.
   566  5.6500  0.  0.
   567  5.6600  0.  0.
   568  5.6700  0.  0.
   569  5.6800  0.  0.
   570  5.6900  0.  0.
   571  5.7000  0.  0.
   572  5.7100  0.  0.
   573  5.7200  0.  0.
   574  5.7300  0.  0.
   575  5.7400  0.  0.
   576  5.7500  0.  0.
   577  5.7600  0.  0.
   578  5.7700  0.  0.
   579  5.7800  0.  0.
   580  5.7900  0.  0.
   581  5.8000  0.  0.
   582  5.8100  0.  0.
   583  5.8200  0.  0.
   584  5.8300  0.  0.
   585  5.8400  0.  0.
   586  5.8500  0.  0.
   587  5.8600  0.  0.
   588  5.8700  0.  0.
   589  5.8800  0.  0.
   590  5.8900  0.  0.
   591  5.9000  0.  0.
   592  5.9100  0.  0.
   593  5.9200  0.  0.
   594  5.9300  0.  0.
   595  5.9400  0.  0.
   596  5.9500  0.  0.
   597  5.9600  0.  0.
   598  5.9700  0.  0.
   599  5.9800  0.  0.
   600  5.9900  0.  0.
   1                         3.1647292306825E+00  2.8096121969088E-01
     1  0.0000000000000E+00  4.3561262236258E-11 -1.3379561824775E-10
     2  1.0000000000000E-02  3.2541467102400E-04 -5.0447925376977E-05
     3  2.0000000000000E-02  1.3012082252723E-03 -2.0139432757168E-04
     4  3.0000000000000E-02  2.9260315731656E-03 -4.5165316342720E-04
     5  4.0000000000000E-02  5.1976438313498E-03 -7.9926788366466E-04
     6  5.0000000000000E-02  8.1129236389973E-03 -1.2415414628402E-03
     7  6.0000000000000E-02  1.1667884836226E-02 -1.7750779358400E-03
     8  7.0000000000000E-02  1.5857696342278E-02 -2.3958349418257E-03
     9  8.0000000000000E-02  2.0676706027548E-02 -3.0991866427460E-03
    10  9.0000000000000E-02  2.6118468332107E-02 -3.8799962564019E-03
    11  1.0000000000000E-01  3.2175775344504E-02 -4.7326973247346E-03
    12  1.1000000000000E-01  3.8840691018625E-02 -5.6513827278703E-03
    13  1.2000000000000E-01  4.6104588173751E-02 -6.6299003545042E-03
    14  1.3000000000000E-01  5.3958187893928E-02 -7.6619542507494E-03
    15  1.4000000000000E-01  6.2391600917715E-02 -8.7412099933058E-03
    16  1.5000000000000E-01  7.1394370588521E-02 -9.8614029696171E-03
    17  1.6000000000000E-01  8.0955516919347E-02 -1.1016448198567E-02
    18  1.7000000000000E-01  9.1063581314011E-02 -1.2200550290242E-02
    19  1.8000000000000E-01  1.0170667147988E-01 -1.3408312123326E-02
    20  1.9000000000000E-01  1.1287250606507E-01 -1.4634840813734E-02
    21  2.0000000000000E-01  1.2454845855575E-01 -1.5875849558476E-02
    22  2.1000000000000E-01  1.3672159997696E-01 -1.7127753964198E-02
    23  2.2000000000000E-01  1.4937873995275E-01 -1.8387761510625E-02
    24  2.3000000000000E-01  1.6250646569879E-01 -1.9653952854426E-02
    25  2.4000000000000E-01  1.7609117854240E-01 -2.0925353748771E-02
    26  2.5000000000000E-01  1.9011912759126E-01 -2.2201996437260E-02
    27  2.6000000000000E-01  2.0457644020250E-01 -2.3484969477252E-02
    28  2.7000000000000E-01  2.1944914893803E-01 -2.4776455056096E-02
    29  2.8000000000000E-01  2.3472321473017E-01 -2.6079752983311E-02
    30  2.9000000000000E-01  2.5038454602246E-01 -2.7399290671318E-02
    31  3.0000000000000E-01  2.6641901369458E-01 -2.8740618555654E-02
    32  3.1000000000000E-01  2.8281246162669E-01 -3.0110390551404E-02
    33  3.2000000000000E-01  2.9955071280677E-01 -3.1516329294520E-02
    34  3.3000000000000E-01  3.1661957093430E-01 -3.2967176073144E-02
    35  3.4000000000000E-01  3.3400481752455E-01 -3.4472625513906E-02
    36  3.5000000000000E-01  3.5169220456902E-01 -3.6043245249211E-02
    37  3.6000000000000E-01  3.6966744285889E-01 -3.7690380953077E-02
    38  3.7000000000000E-01  3.8791618612930E-01 -3.9426047292562E-02
    39  3.8000000000000E-01  4.0642401123206E-01 -4.1262805498559E-02
    40  3.9000000000000E-01  4.2517639459283E-01 -4.3213628411589E-02
    41  4.0000000000000E-01  4.4415868525499E-01 -4.5291754003791E-02
    42  4.1000000000000E-01  4.6335607485656E-01 -4.7510528516333E-02
    43  4.2000000000000E-01  4.8275356492737E-01 -4.9883240480236E-02
    44  4.3000000000000E-01  5.0233593193123E-01 -5.2422947006943E-02
    45  4.4000000000000E-01  5.2208769051193E-01 -5.5142293841623E-02
    46  4.5000000000000E-01  5.4199305543142E-01 -5.8053330766012E-02
    47  4.6000000000000E-01  5.6203590271403E-01 -6.1167324017353E-02
    48  4.7000000000000E-01  5.8219973053093E-01 -6.4494567455252E-02
    49  4.8000000000000E-01  6.0246762037475E-01 -6.8044194257588E-02
    50  4.9000000000000E-01  6.2282219908458E-01 -7.1823990960022E-02
    51  5.0000000000000E-01  6.4324560228654E-01 -7.5840215670128E-02
    52  5.1000000000000E-01  6.6371943981470E-01 -8.0097422286691E-02
    53  5.2000000000000E-01  6.8422476367105E-01 -8.4598292537111E-02
    54  5.3000000000000E-01  7.0474203907189E-01 -8.9343477610682E-02
    55  5.4000000000000E-01  7.2525111911076E-01 -9.4331451113706E-02
    56  5.5000000000000E-01  7.4573122354590E-01 -9.9558375003344E-02
    57  5.6000000000000E-01  7.6616092219245E-01 -1.0501798007200E-01
    58  5.7000000000000E-01  7.8651812336706E-01 -1.1070146245314E-01
    59  5.8000000000000E-01  8.0678006779512E-01 -1.1659739750348E-01
    60  5.9000000000000E-01  8.2692332834874E-01 -1.2269167228664E-01