Te    ONCVPSP-4.0.1  r_core=   2.30879   2.26773   2.30879
     52.0000     16.0000      220731    zatom,zion,pspd
     8      11   2     4   600     0    pspcod,pspxc,lmax,lloc,mmax,r2well
  5.99000000  5.00000000  0.00000000    rchrg fchrg qchrg
     2     2     2     0     0    nproj
     1     1           extension_switch
   0                         8.0880221661035E+00  1.2979794457306E+00
     1  0.0000000000000E+00 -1.1816436717993E-11  2.8134772289690E-11
     2  1.0000000000000E-02  2.9343844472522E-02 -2.0358314065008E-02
     3  2.0000000000000E-02  5.8646448777150E-02 -4.0636664192216E-02
     4  3.0000000000000E-02  8.7866746731320E-02 -6.0755468979242E-02
     5  4.0000000000000E-02  1.1696401929952E-01 -8.0635910251268E-02
     6  5.0000000000000E-02  1.4589806611072E-01 -1.0020031007371E-01
     7  6.0000000000000E-02  1.7462937451681E-01 -1.1937250226327E-01
     8  7.0000000000000E-02  2.0311928538604E-01 -1.3807819659642E-01
     9  8.0000000000000E-02  2.3133015483760E-01 -1.5624533394242E-01
    10  9.0000000000000E-02  2.5922551113787E-01 -1.7380443058308E-01
    11  1.0000000000000E-01  2.8677020599675E-01 -1.9068891002374E-01
    12  1.1000000000000E-01  3.1393055952331E-01 -2.0683542064860E-01
    13  1.2000000000000E-01  3.4067449812319E-01 -2.2218413762942E-01
    14  1.3000000000000E-01  3.6697168464702E-01 -2.3667904755939E-01
    15  1.4000000000000E-01  3.9279364012834E-01 -2.5026821435272E-01
    16  1.5000000000000E-01  4.1811385648170E-01 -2.6290402502675E-01
    17  1.6000000000000E-01  4.4290789956689E-01 -2.7454341406518E-01
    18  1.7000000000000E-01  4.6715350206292E-01 -2.8514806514990E-01
    19  1.8000000000000E-01  4.9083064563612E-01 -2.9468458914308E-01
    20  1.9000000000000E-01  5.1392163192992E-01 -3.0312467730218E-01
    21  2.0000000000000E-01  5.3641114194986E-01 -3.1044522881636E-01
    22  2.1000000000000E-01  5.5828628346566E-01 -3.1662845186465E-01
    23  2.2000000000000E-01  5.7953662610319E-01 -3.2166193751315E-01
    24  2.3000000000000E-01  6.0015422385206E-01 -3.2553870588986E-01
    25  2.4000000000000E-01  6.2013362477019E-01 -3.2825722420235E-01
    26  2.5000000000000E-01  6.3947186772360E-01 -3.2982139629336E-01
    27  2.6000000000000E-01  6.5816846605930E-01 -3.3024052356354E-01
    28  2.7000000000000E-01  6.7622537816956E-01 -3.2952923722771E-01
    29  2.8000000000000E-01  6.9364696496860E-01 -3.2770740201085E-01
    30  2.9000000000000E-01  7.1043993436584E-01 -3.2479999153204E-01
    31  3.0000000000000E-01  7.2661327288486E-01 -3.2083693576835E-01
    32  3.1000000000000E-01  7.4217816464218E-01 -3.1585294113543E-01
    33  3.2000000000000E-01  7.5714789796613E-01 -3.0988728386629E-01
    34  3.3000000000000E-01  7.7153776000165E-01 -3.0298357751491E-01
    35  3.4000000000000E-01  7.8536491971322E-01 -2.9518951555487E-01
    36  3.5000000000000E-01  7.9864829976316E-01 -2.8655659018506E-01
    37  3.6000000000000E-01  8.1140843780738E-01 -2.7713978859437E-01
    38  3.7000000000000E-01  8.2366733781415E-01 -2.6699726807321E-01
    39  3.8000000000000E-01  8.3544831207350E-01 -2.5619001149190E-01
    40  3.9000000000000E-01  8.4677581462504E-01 -2.4478146479362E-01
    41  4.0000000000000E-01  8.5767526688990E-01 -2.3283715827065E-01
    42  4.1000000000000E-01  8.6817287634781E-01 -2.2042431350832E-01
    43  4.2000000000000E-01  8.7829544915281E-01 -2.0761143798853E-01
    44  4.3000000000000E-01  8.8807019762991E-01 -1.9446790944461E-01
    45  4.4000000000000E-01  8.9752454364024E-01 -1.8106355214996E-01
    46  4.5000000000000E-01  9.0668591884336E-01 -1.6746820740417E-01
    47  4.6000000000000E-01  9.1558156292209E-01 -1.5375130055089E-01
    48  4.7000000000000E-01  9.2423832086683E-01 -1.3998140692155E-01
    49  4.8000000000000E-01  9.3268244044307E-01 -1.2622581914656E-01
    50  4.9000000000000E-01  9.4093937098698E-01 -1.1255011831139E-01
    51  5.0000000000000E-01  9.4903356468912E-01 -9.9017751457000E-02
    52  5.1000000000000E-01  9.5698828153601E-01 -8.5689617933478E-02
    53  5.2000000000000E-01  9.6482539908199E-01 -7.2623667110447E-02
    54  5.3000000000000E-01  9.7256522822058E-01 -5.9874509928812E-02
    55  5.4000000000000E-01  9.8022633611448E-01 -4.7493046744490E-02
    56  5.5000000000000E-01  9.8782537742643E-01 -3.5526113866221E-02
    57  5.6000000000000E-01  9.9537693496930E-01 -2.4016151125995E-02
    58  5.7000000000000E-01  1.0028933708631E+00 -1.3000892742179E-02
    59  5.8000000000000E-01  1.0103846892493E+00 -2.5130836421076E-03
    60  5.9000000000000E-01  1.0178584115669E+00  7.4197766973501E-03
    61  6.0000000000000E-01  1.0253194653452E+00  1.6775660955127E-02
    62  6.1000000000000E-01  1.0327700874079E+00  2.5538209417931E-02
    63  6.2000000000000E-01  1.0402097423201E+00  3.3696892529851E-02
    64  6.3000000000000E-01  1.0476350568363E+00  4.1247139054108E-02
    65  6.4000000000000E-01  1.0550397710328E+00  4.8190428537272E-02
    66  6.5000000000000E-01  1.0624147067232E+00  5.4534346953894E-02
    67  6.6000000000000E-01  1.0697477536665E+00  6.0292604607701E-02
    68  6.7000000000000E-01  1.0770238739857E+00  6.5485015573818E-02
    69  6.8000000000000E-01  1.0842251251152E+00  7.0137438183177E-02
    70  6.9000000000000E-01  1.0913307014927E+00  7.4281676275125E-02
    71  7.0000000000000E-01  1.0983169951076E+00  7.7955341174913E-02
    72  7.1000000000000E-01  1.1051576749059E+00  8.1201674588986E-02
    73  7.2000000000000E-01  1.1118237849441E+00  8.4069332850796E-02
    74  7.3000000000000E-01  1.1182838610680E+00  8.6612133191829E-02
    75  7.4000000000000E-01  1.1245040657824E+00  8.8888762955696E-02
    76  7.5000000000000E-01  1.1304483408587E+00  9.0962452915103E-02
    77  7.6000000000000E-01  1.1360785771186E+00  9.2900616091682E-02
    78  7.7000000000000E-01  1.1413548007142E+00  9.4774453714759E-02
    79  7.8000000000000E-01  1.1462353751176E+00  9.6658530185595E-02
    80  7.9000000000000E-01  1.1506772179228E+00  9.8630319137599E-02
    81  8.0000000000000E-01  1.1546360314570E+00  1.0076972289766E-01
    82  8.1000000000000E-01  1.1580665460986E+00  1.0315856785873E-01
    83  8.2000000000000E-01  1.1609227751020E+00  1.0588007846670E-01
    84  8.3000000000000E-01  1.1631582796381E+00  1.0901833270441E-01
    85  8.4000000000000E-01  1.1647264426749E+00  1.1265770212072E-01
    86  8.5000000000000E-01  1.1655807502456E+00  1.1688227960163E-01
    87  8.6000000000000E-01  1.1656750785792E+00  1.2177529821176E-01
    88  8.7000000000000E-01  1.1649639855074E+00  1.2741854454835E-01
    89  8.8000000000000E-01  1.1634030045091E+00  1.3389177014235E-01
    90  8.9000000000000E-01  1.1609489397065E+00  1.4127210451473E-01
    91  9.0000000000000E-01  1.1575601600936E+00  1.4963347354683E-01
    92  9.1000000000000E-01  1.1531968912542E+00  1.5904602685279E-01
    93  9.2000000000000E-01  1.1478215028078E+00  1.6957557784759E-01
    94  9.3000000000000E-01  1.1413987898238E+00  1.8128306018731E-01
    95  9.4000000000000E-01  1.1338962464451E+00  1.9422400421662E-01
    96  9.5000000000000E-01  1.1252843299861E+00  2.0844803699370E-01
    97  9.6000000000000E-01  1.1155367137945E+00  2.2399840937354E-01
    98  9.7000000000000E-01  1.1046305272095E+00  2.4091155351832E-01
    99  9.8000000000000E-01  1.0925465809999E+00  2.5921667406676E-01
   100  9.9000000000000E-01  1.0792695767248E+00  2.7893537603573E-01
   101  1.0000000000000E+00  1.0647882985385E+00  3.0008133234577E-01
   102  1.0100000000000E+00  1.0490957860371E+00  3.2265999365909E-01
   103  1.0200000000000E+00  1.0321894868439E+00  3.4666834299532E-01
   104  1.0300000000000E+00  1.0140713877295E+00  3.7209469734732E-01
   105  1.0400000000000E+00  9.9474812317632E-01  3.9891855825815E-01
   106  1.0500000000000E+00  9.7423106041583E-01  4.2711051304271E-01
   107  1.0600000000000E+00  9.5253636009766E-01  4.5663218804444E-01
   108  1.0700000000000E+00  9.2968501188167E-01  4.8743625501121E-01
   109  1.0800000000000E+00  9.0570284438821E-01  5.1946649135621E-01
   110  1.0900000000000E+00  8.8062050908729E-01  5.5265789474201E-01
   111  1.1000000000000E+00  8.5447343785993E-01  5.8693685208994E-01
   112  1.1100000000000E+00  8.2730177411955E-01  6.2222136277630E-01
   113  1.1200000000000E+00  7.9915027754015E-01  6.5842131543120E-01
   114  1.1300000000000E+00  7.7006820259717E-01  6.9543881741079E-01
   115  1.1400000000000E+00  7.4010915128817E-01  7.3316857566726E-01
   116  1.1500000000000E+00  7.0933090056011E-01  7.7149832740076E-01
   117  1.1600000000000E+00  6.7779520512978E-01  8.1030931853911E-01
   118  1.1700000000000E+00  6.4556757653985E-01  8.4947682776486E-01
   119  1.1800000000000E+00  6.1271703944677E-01  8.8887073348872E-01
   120  1.1900000000000E+00  5.7931586628507E-01  9.2835612086443E-01
   121  1.2000000000000E+00  5.4543929159631E-01  9.6779392564687E-01
   122  1.2100000000000E+00  5.1116520744753E-01  1.0070416114216E+00
   123  1.2200000000000E+00  4.7657384149346E-01  1.0459538764769E+00
   124  1.2300000000000E+00  4.4174741935822E-01  1.0843833863543E+00
   125  1.2400000000000E+00  4.0676981312360E-01  1.1221815278994E+00
   126  1.2500000000000E+00  3.7172617781347E-01  1.1591991804467E+00
   127  1.2600000000000E+00  3.3670257785467E-01  1.1952874996062E+00
   128  1.2700000000000E+00  3.0178560557440E-01  1.2302987089853E+00
   129  1.2800000000000E+00  2.6706199386191E-01  1.2640868950683E+00
   130  1.2900000000000E+00  2.3261822517707E-01  1.2965088003968E+00
   131  1.3000000000000E+00  1.9854013913011E-01  1.3274246101461E+00
   132  1.3100000000000E+00  1.6491254088552E-01  1.3566987271698E+00
   133  1.3200000000000E+00  1.3181881265728E-01  1.3842005306016E+00
   134  1.3300000000000E+00  9.9340530563368E-02  1.4098051131409E+00
   135  1.3400000000000E+00  6.7557089093939E-02  1.4333939922292E+00
   136  1.3500000000000E+00  3.6545335419857E-02  1.4548557904230E+00
   137  1.3600000000000E+00  6.3792157265652E-03  1.4740868804123E+00
   138  1.3700000000000E+00 -2.2870564297119E-02  1.4909919902937E+00
   139  1.3800000000000E+00 -5.1136862755098E-02  1.5054847649068E+00
   140  1.3900000000000E+00 -7.8356406647016E-02  1.5174882792641E+00
   141  1.4000000000000E+00 -1.0447007689568E-01  1.5269355003577E+00
   142  1.4100000000000E+00 -1.2942317152328E-01  1.5337696938987E+00
   143  1.4200000000000E+00 -1.5316564532061E-01  1.5379447728488E+00
   144  1.4300000000000E+00 -1.7565232448284E-01  1.5394255849264E+00
   145  1.4400000000000E+00 -1.9684309482592E-01  1.5381881366077E+00
   146  1.4500000000000E+00 -2.1670306234695E-01  1.5342197515112E+00
   147  1.4600000000000E+00 -2.3520268504953E-01  1.5275191614237E+00
   148  1.4700000000000E+00 -2.5231787512030E-01  1.5180965286224E+00
   149  1.4800000000000E+00 -2.6803007071441E-01  1.5059733985452E+00
   150  1.4900000000000E+00 -2.8232627678434E-01  1.4911825822738E+00
   151  1.5000000000000E+00 -2.9519907456720E-01  1.4737679687098E+00
   152  1.5100000000000E+00 -3.0664659952967E-01  1.4537842667431E+00
   153  1.5200000000000E+00 -3.1667248775523E-01  1.4312966781326E+00
   154  1.5300000000000E+00 -3.2528579094484E-01  1.4063805022385E+00
   155  1.5400000000000E+00 -3.3250086038721E-01  1.3791206741555E+00
   156  1.5500000000000E+00 -3.3833720043980E-01  1.3496112382058E+00
   157  1.5600000000000E+00 -3.4281929224170E-01  1.3179547591459E+00
   158  1.5700000000000E+00 -3.4597638855685E-01  1.2842616738212E+00
   159  1.5800000000000E+00 -3.4784228079904E-01  1.2486495862015E+00
   160  1.5900000000000E+00 -3.4845503948128E-01  1.2112425094346E+00
   161  1.6000000000000E+00 -3.4785673039236E-01  1.1721700664379E+00
   162  1.6100000000000E+00 -3.4609310511709E-01  1.1315666280248E+00
   163  1.6200000000000E+00 -3.4321335205382E-01  1.0895711545942E+00
   164  1.6300000000000E+00 -3.3926990840270E-01  1.0463275370012E+00
   165  1.6400000000000E+00 -3.3431819938454E-01  1.0019841745915E+00
   166  1.6500000000000E+00 -3.2841633445332E-01  9.5669321285062E-01
   167  1.6600000000000E+00 -3.2162479696907E-01  9.1060980143430E-01
   168  1.6700000000000E+00 -3.1400612542313E-01  8.6389133675825E-01
   169  1.6800000000000E+00 -3.0562458857850E-01  8.1669669879689E-01
   170  1.6900000000000E+00 -2.9654585629963E-01  7.6918548534060E-01
   171  1.7000000000000E+00 -2.8683666780427E-01  7.2151724689219E-01
   172  1.7100000000000E+00 -2.7656449904314E-01  6.7385072545259E-01
   173  1.7200000000000E+00 -2.6579723087802E-01  6.2634310044381E-01
   174  1.7300000000000E+00 -2.5460281970340E-01  5.7914924509966E-01
   175  1.7400000000000E+00 -2.4304897211804E-01  5.3242099664174E-01
   176  1.7500000000000E+00 -2.3120282521581E-01  4.8630644356777E-01
   177  1.7600000000000E+00 -2.1913063403949E-01  4.4094923345717E-01
   178  1.7700000000000E+00 -2.0689746769479E-01  3.9648790464353E-01
   179  1.7800000000000E+00 -1.9456691558744E-01  3.5305524512478E-01
   180  1.7900000000000E+00 -1.8220080519643E-01  3.1077768201213E-01
   181  1.8000000000000E+00 -1.6985893274984E-01  2.6977470477181E-01
   182  1.8100000000000E+00 -1.5759880811441E-01  2.3015832542176E-01
   183  1.8200000000000E+00 -1.4547541513983E-01  1.9203257867980E-01
   184  1.8300000000000E+00 -1.3354098863218E-01  1.5549306492735E-01
   185  1.8400000000000E+00 -1.2184480905404E-01  1.2062653867374E-01
   186  1.8500000000000E+00 -1.1043301595477E-01  8.7510544949179E-02
   187  1.8600000000000E+00 -9.9348441039444E-02  5.6213105813241E-02
   188  1.8700000000000E+00 -8.8630461691037E-02  2.6792458939550E-02
   189  1.8800000000000E+00 -7.8314875636061E-02 -7.0315013062164E-04
   190  1.8900000000000E+00 -6.8433797340750E-02 -2.6235620710656E-02
   191  1.9000000000000E+00 -5.9015576590019E-02 -4.9777093704616E-02
   192  1.9100000000000E+00 -5.0084739583356E-02 -7.1309991685854E-02
   193  1.9200000000000E+00 -4.1661952751929E-02 -9.0827001989199E-02
   194  1.9300000000000E+00 -3.3764009360114E-02 -1.0833100287491E-01
   195  1.9400000000000E+00 -2.6403838823153E-02 -1.2383493315674E-01
   196  1.9500000000000E+00 -1.9590538545722E-02 -1.3736160599229E-01
   197  1.9600000000000E+00 -1.3329427942589E-02 -1.4894346792879E-01
   198  1.9700000000000E+00 -7.6221241677067E-03 -1.5862230463232E-01
   199  1.9800000000000E+00 -2.4666389602914E-03 -1.6644889500167E-01
   200  1.9900000000000E+00  2.1425041207712E-03 -1.7248261573095E-01
   201  2.0000000000000E+00  6.2141329212384E-03 -1.7679099866768E-01
   202  2.0100000000000E+00  9.7602713353259E-03 -1.7944924358392E-01
   203  2.0200000000000E+00  1.2795966449585E-02 -1.8053968928059E-01
   204  2.0300000000000E+00  1.5339099353087E-02 -1.8015124612710E-01
   205  2.0400000000000E+00  1.7410180894280E-02 -1.7837879342545E-01
   206  2.0500000000000E+00  1.9032133746414E-02 -1.7532254517856E-01
   207  2.0600000000000E+00  2.0230062219303E-02 -1.7108738800549E-01
   208  2.0700000000000E+00  2.1031011326058E-02 -1.6578219510855E-01
   209  2.0800000000000E+00  2.1463716682679E-02 -1.5951912037003E-01
   210  2.0900000000000E+00  2.1558346855014E-02 -1.5241287670801E-01
   211  2.1000000000000E+00  2.1346239824903E-02 -1.4458000297022E-01
   212  2.1100000000000E+00  2.0859635266246E-02 -1.3613812366277E-01
   213  2.1200000000000E+00  2.0131404344475E-02 -1.2720520585356E-01
   214  2.1300000000000E+00  1.9194778766162E-02 -1.1789881761680E-01
   215  2.1400000000000E+00  1.8083080807354E-02 -1.0833539237682E-01
   216  2.1500000000000E+00  1.6829456994568E-02 -9.8629505480211E-02
   217  2.1600000000000E+00  1.5466612207132E-02 -8.8893156809996E-02
   218  2.1700000000000E+00  1.4026540761430E-02 -7.9235052807472E-02
   219  2.1800000000000E+00  1.2540344084113E-02 -6.9760078165807E-02
   220  2.1900000000000E+00  1.1037890575242E-02 -6.0568440914357E-02
   221  2.2000000000000E+00  9.5462322980058E-03 -5.1752189796952E-02
   222  2.2100000000000E+00  8.0888727808097E-03 -4.3393541881181E-02
   223  2.2200000000000E+00  6.6914927531901E-03 -3.5576901265514E-02
   224  2.2300000000000E+00  5.3786684115783E-03 -2.8381809086925E-02
   225  2.2400000000000E+00  4.1722908922653E-03 -2.1879504291299E-02
   226  2.2500000000000E+00  3.0918612630091E-03 -1.6133465130749E-02
   227  2.2600000000000E+00  2.1542518442626E-03 -1.1198831041961E-02
   228  2.2700000000000E+00  1.3737704101881E-03 -7.1230513714358E-03
   229  2.2800000000000E+00  7.6126848401584E-04 -3.9415099035864E-03
   230  2.2900000000000E+00  3.2285334986312E-04 -1.6710763259069E-03
   231  2.3000000000000E+00  7.7522578479250E-05 -4.0168954629603E-04
   232  2.3100000000000E+00 -3.8185567766074E-06  1.9625162984475E-05
   233  2.3200000000000E+00 -3.5221993578394E-06  1.8228726493322E-05
   234  2.3300  0. -0.
   235  2.3400 -0.  0.
   236  2.3500 -0.  0.
   237  2.3600  0. -0.
   238  2.3700  0.  0.
   239  2.3800  0.  0.
   240  2.3900  0.  0.
   241  2.4000  0.  0.
   242  2.4100  0.  0.
   243  2.4200  0.  0.
   244  2.4300  0.  0.
   245  2.4400  0.  0.
   246  2.4500  0.  0.
   247  2.4600  0.  0.
   248  2.4700  0.  0.
   249  2.4800  0.  0.
   250  2.4900  0.  0.
   251  2.5000  0.  0.
   252  2.5100  0.  0.
   253  2.5200  0.  0.
   254  2.5300  0.  0.
   255  2.5400  0.  0.
   256  2.5500  0.  0.
   257  2.5600  0.  0.
   258  2.5700  0.  0.
   259  2.5800  0.  0.
   260  2.5900  0.  0.
   261  2.6000  0.  0.
   262  2.6100  0.  0.
   263  2.6200  0.  0.
   264  2.6300  0.  0.
   265  2.6400  0.  0.
   266  2.6500  0.  0.
   267  2.6600  0.  0.
   268  2.6700  0.  0.
   269  2.6800  0.  0.
   270  2.6900  0.  0.
   271  2.7000  0.  0.
   272  2.7100  0.  0.
   273  2.7200  0.  0.
   274  2.7300  0.  0.
   275  2.7400  0.  0.
   276  2.7500  0.  0.
   277  2.7600  0.  0.
   278  2.7700  0.  0.
   279  2.7800  0.  0.
   280  2.7900  0.  0.
   281  2.8000  0.  0.
   282  2.8100  0.  0.
   283  2.8200  0.  0.
   284  2.8300  0.  0.
   285  2.8400  0.  0.
   286  2.8500  0.  0.
   287  2.8600  0.  0.
   288  2.8700  0.  0.
   289  2.8800  0.  0.
   290  2.8900  0.  0.
   291  2.9000  0.  0.
   292  2.9100  0.  0.
   293  2.9200  0.  0.
   294  2.9300  0.  0.
   295  2.9400  0.  0.
   296  2.9500  0.  0.
   297  2.9600  0.  0.
   298  2.9700  0.  0.
   299  2.9800  0.  0.
   300  2.9900  0.  0.
   301  3.0000  0.  0.
   302  3.0100  0.  0.
   303  3.0200  0.  0.
   304  3.0300  0.  0.
   305  3.0400  0.  0.
   306  3.0500  0.  0.
   307  3.0600  0.  0.
   308  3.0700  0.  0.
   309  3.0800  0.  0.
   310  3.0900  0.  0.
   311  3.1000  0.  0.
   312  3.1100  0.  0.
   313  3.1200  0.  0.
   314  3.1300  0.  0.
   315  3.1400  0.  0.
   316  3.1500  0.  0.
   317  3.1600  0.  0.
   318  3.1700  0.  0.
   319  3.1800  0.  0.
   320  3.1900  0.  0.
   321  3.2000  0.  0.
   322  3.2100  0.  0.
   323  3.2200  0.  0.
   324  3.2300  0.  0.
   325  3.2400  0.  0.
   326  3.2500  0.  0.
   327  3.2600  0.  0.
   328  3.2700  0.  0.
   329  3.2800  0.  0.
   330  3.2900  0.  0.
   331  3.3000  0.  0.
   332  3.3100  0.  0.
   333  3.3200  0.  0.
   334  3.3300  0.  0.
   335  3.3400  0.  0.
   336  3.3500  0.  0.
   337  3.3600  0.  0.
   338  3.3700  0.  0.
   339  3.3800  0.  0.
   340  3.3900  0.  0.
   341  3.4000  0.  0.
   342  3.4100  0.  0.
   343  3.4200  0.  0.
   344  3.4300  0.  0.
   345  3.4400  0.  0.
   346  3.4500  0.  0.
   347  3.4600  0.  0.
   348  3.4700  0.  0.
   349  3.4800  0.  0.
   350  3.4900  0.  0.
   351  3.5000  0.  0.
   352  3.5100  0.  0.
   353  3.5200  0.  0.
   354  3.5300  0.  0.
   355  3.5400  0.  0.
   356  3.5500  0.  0.
   357  3.5600  0.  0.
   358  3.5700  0.  0.
   359  3.5800  0.  0.
   360  3.5900  0.  0.
   361  3.6000  0.  0.
   362  3.6100  0.  0.
   363  3.6200  0.  0.
   364  3.6300  0.  0.
   365  3.6400  0.  0.
   366  3.6500  0.  0.
   367  3.6600  0.  0.
   368  3.6700  0.  0.
   369  3.6800  0.  0.
   370  3.6900  0.  0.
   371  3.7000  0.  0.
   372  3.7100  0.  0.
   373  3.7200  0.  0.
   374  3.7300  0.  0.
   375  3.7400  0.  0.
   376  3.7500  0.  0.
   377  3.7600  0.  0.
   378  3.7700  0.  0.
   379  3.7800  0.  0.
   380  3.7900  0.  0.
   381  3.8000  0.  0.
   382  3.8100  0.  0.
   383  3.8200  0.  0.
   384  3.8300  0.  0.
   385  3.8400  0.  0.
   386  3.8500  0.  0.
   387  3.8600  0.  0.
   388  3.8700  0.  0.
   389  3.8800  0.  0.
   390  3.8900  0.  0.
   391  3.9000  0.  0.
   392  3.9100  0.  0.
   393  3.9200  0.  0.
   394  3.9300  0.  0.
   395  3.9400  0.  0.
   396  3.9500  0.  0.
   397  3.9600  0.  0.
   398  3.9700  0.  0.
   399  3.9800  0.  0.
   400  3.9900  0.  0.
   401  4.0000  0.  0.
   402  4.0100  0.  0.
   403  4.0200  0.  0.
   404  4.0300  0.  0.
   405  4.0400  0.  0.
   406  4.0500  0.  0.
   407  4.0600  0.  0.
   408  4.0700  0.  0.
   409  4.0800  0.  0.
   410  4.0900  0.  0.
   411  4.1000  0.  0.
   412  4.1100  0.  0.
   413  4.1200  0.  0.
   414  4.1300  0.  0.
   415  4.1400  0.  0.
   416  4.1500  0.  0.
   417  4.1600  0.  0.
   418  4.1700  0.  0.
   419  4.1800  0.  0.
   420  4.1900  0.  0.
   421  4.2000  0.  0.
   422  4.2100  0.  0.
   423  4.2200  0.  0.
   424  4.2300  0.  0.
   425  4.2400  0.  0.
   426  4.2500  0.  0.
   427  4.2600  0.  0.
   428  4.2700  0.  0.
   429  4.2800  0.  0.
   430  4.2900  0.  0.
   431  4.3000  0.  0.
   432  4.3100  0.  0.
   433  4.3200  0.  0.
   434  4.3300  0.  0.
   435  4.3400  0.  0.
   436  4.3500  0.  0.
   437  4.3600  0.  0.
   438  4.3700  0.  0.
   439  4.3800  0.  0.
   440  4.3900  0.  0.
   441  4.4000  0.  0.
   442  4.4100  0.  0.
   443  4.4200  0.  0.
   444  4.4300  0.  0.
   445  4.4400  0.  0.
   446  4.4500  0.  0.
   447  4.4600  0.  0.
   448  4.4700  0.  0.
   449  4.4800  0.  0.
   450  4.4900  0.  0.
   451  4.5000  0.  0.
   452  4.5100  0.  0.
   453  4.5200  0.  0.
   454  4.5300  0.  0.
   455  4.5400  0.  0.
   456  4.5500  0.  0.
   457  4.5600  0.  0.
   458  4.5700  0.  0.
   459  4.5800  0.  0.
   460  4.5900  0.  0.
   461  4.6000  0.  0.
   462  4.6100  0.  0.
   463  4.6200  0.  0.
   464  4.6300  0.  0.
   465  4.6400  0.  0.
   466  4.6500  0.  0.
   467  4.6600  0.  0.
   468  4.6700  0.  0.
   469  4.6800  0.  0.
   470  4.6900  0.  0.
   471  4.7000  0.  0.
   472  4.7100  0.  0.
   473  4.7200  0.  0.
   474  4.7300  0.  0.
   475  4.7400  0.  0.
   476  4.7500  0.  0.
   477  4.7600  0.  0.
   478  4.7700  0.  0.
   479  4.7800  0.  0.
   480  4.7900  0.  0.
   481  4.8000  0.  0.
   482  4.8100  0.  0.
   483  4.8200  0.  0.
   484  4.8300  0.  0.
   485  4.8400  0.  0.
   486  4.8500  0.  0.
   487  4.8600  0.  0.
   488  4.8700  0.  0.
   489  4.8800  0.  0.
   490  4.8900  0.  0.
   491  4.9000  0.  0.
   492  4.9100  0.  0.
   493  4.9200  0.  0.
   494  4.9300  0.  0.
   495  4.9400  0.  0.
   496  4.9500  0.  0.
   497  4.9600  0.  0.
   498  4.9700  0.  0.
   499  4.9800  0.  0.
   500  4.9900  0.  0.
   501  5.0000  0.  0.
   502  5.0100  0.  0.
   503  5.0200  0.  0.
   504  5.0300  0.  0.
   505  5.0400  0.  0.
   506  5.0500  0.  0.
   507  5.0600  0.  0.
   508  5.0700  0.  0.
   509  5.0800  0.  0.
   510  5.0900  0.  0.
   511  5.1000  0.  0.
   512  5.1100  0.  0.
   513  5.1200  0.  0.
   514  5.1300  0.  0.
   515  5.1400  0.  0.
   516  5.1500  0.  0.
   517  5.1600  0.  0.
   518  5.1700  0.  0.
   519  5.1800  0.  0.
   520  5.1900  0.  0.
   521  5.2000  0.  0.
   522  5.2100  0.  0.
   523  5.2200  0.  0.
   524  5.2300  0.  0.
   525  5.2400  0.  0.
   526  5.2500  0.  0.
   527  5.2600  0.  0.
   528  5.2700  0.  0.
   529  5.2800  0.  0.
   530  5.2900  0.  0.
   531  5.3000  0.  0.
   532  5.3100  0.  0.
   533  5.3200  0.  0.
   534  5.3300  0.  0.
   535  5.3400  0.  0.
   536  5.3500  0.  0.
   537  5.3600  0.  0.
   538  5.3700  0.  0.
   539  5.3800  0.  0.
   540  5.3900  0.  0.
   541  5.4000  0.  0.
   542  5.4100  0.  0.
   543  5.4200  0.  0.
   544  5.4300  0.  0.
   545  5.4400  0.  0.
   546  5.4500  0.  0.
   547  5.4600  0.  0.
   548  5.4700  0.  0.
   549  5.4800  0.  0.
   550  5.4900  0.  0.
   551  5.5000  0.  0.
   552  5.5100  0.  0.
   553  5.5200  0.  0.
   554  5.5300  0.  0.
   555  5.5400  0.  0.
   556  5.5500  0.  0.
   557  5.5600  0.  0.
   558  5.5700  0.  0.
   559  5.5800  0.  0.
   560  5.5900  0.  0.
   561  5.6000  0.  0.
   562  5.6100  0.  0.
   563  5.6200  0.  0.
   564  5.6300  0.  0.
   565  5.6400  0.  0.
   566  5.6500  0.  0.
   567  5.6600  0.  0.
   568  5.6700  0.  0.
   569  5.6800  0.  0.
   570  5.6900  0.  0.
   571  5.7000  0.  0.
   572  5.7100  0.  0.
   573  5.7200  0.  0.
   574  5.7300  0.  0.
   575  5.7400  0.  0.
   576  5.7500  0.  0.
   577  5.7600  0.  0.
   578  5.7700  0.  0.
   579  5.7800  0.  0.
   580  5.7900  0.  0.
   581  5.8000  0.  0.
   582  5.8100  0.  0.
   583  5.8200  0.  0.
   584  5.8300  0.  0.
   585  5.8400  0.  0.
   586  5.8500  0.  0.
   587  5.8600  0.  0.
   588  5.8700  0.  0.
   589  5.8800  0.  0.
   590  5.8900  0.  0.
   591  5.9000  0.  0.
   592  5.9100  0.  0.
   593  5.9200  0.  0.
   594  5.9300  0.  0.
   595  5.9400  0.  0.
   596  5.9500  0.  0.
   597  5.9600  0.  0.
   598  5.9700  0.  0.
   599  5.9800  0.  0.
   600  5.9900  0.  0.
   1                         5.9960791213778E+00  8.2003380097507E-01
     1  0.0000000000000E+00 -2.4797430081547E-10  5.0888416917860E-10
     2  1.0000000000000E-02  2.8134077581846E-04 -7.5000827029691E-05
     3  2.0000000000000E-02  1.1262795101654E-03 -3.0189460259679E-04
     4  3.0000000000000E-02  2.5375517540405E-03 -6.8632862900941E-04
     5  4.0000000000000E-02  4.5196713269616E-03 -1.2376267477806E-03
     6  5.0000000000000E-02  7.0788626345892E-03 -1.9686578052026E-03
     7  6.0000000000000E-02  1.0222966840797E-02 -2.8956534130600E-03
     8  7.0000000000000E-02  1.3961322811639E-02 -4.0379768920539E-03
     9  8.0000000000000E-02  1.8304623996658E-02 -5.4178457943952E-03
    10  9.0000000000000E-02  2.3264752650514E-02 -7.0600108886175E-03
    11  1.0000000000000E-01  2.8854593022939E-02 -8.9913949491877E-03
    12  1.1000000000000E-01  3.5087825355330E-02 -1.1240695121720E-02
    13  1.2000000000000E-01  4.1978702716173E-02 -1.3837953027389E-02
    14  1.3000000000000E-01  4.9541812882979E-02 -1.6814097123730E-02
    15  1.4000000000000E-01  5.7791827634043E-02 -2.0200462149991E-02
    16  1.5000000000000E-01  6.6743241947511E-02 -2.4028290750430E-02
    17  1.6000000000000E-01  7.6410105716812E-02 -2.8328222585873E-02
    18  1.7000000000000E-01  8.6805750679292E-02 -3.3129776410100E-02
    19  1.8000000000000E-01  9.7942515318088E-02 -3.8460830701509E-02
    20  1.9000000000000E-01  1.0983147053514E-01 -4.4347108500627E-02
    21  2.0000000000000E-01  1.2248214890537E-01 -5.0811672109528E-02
    22  2.1000000000000E-01  1.3590228030819E-01 -5.7874433259784E-02
    23  2.2000000000000E-01  1.5009753669271E-01 -6.5551684251266E-02
    24  2.3000000000000E-01  1.6507128866732E-01 -7.3855655405543E-02
    25  2.4000000000000E-01  1.8082437651353E-01 -8.2794103966033E-02
    26  2.5000000000000E-01  1.9735489810826E-01 -9.2369939313901E-02
    27  2.6000000000000E-01  2.1465801609943E-01 -1.0258088905613E-01
    28  2.7000000000000E-01  2.3272578651811E-01 -1.1341921018288E-01
    29  2.8000000000000E-01  2.5154701082660E-01 -1.2487144908785E-01
    30  2.9000000000000E-01  2.7110711319941E-01 -1.3691825380189E-01
    31  3.0000000000000E-01  2.9138804461250E-01 -1.4953424130966E-01
    32  3.1000000000000E-01  3.1236821507890E-01 -1.6268792230671E-01
    33  3.2000000000000E-01  3.3402245511742E-01 -1.7634168521345E-01
    34  3.3000000000000E-01  3.5632200727724E-01 -1.9045184069960E-01
    35  3.4000000000000E-01  3.7923454826833E-01 -2.0496872739034E-01
    36  3.5000000000000E-01  4.0272424196671E-01 -2.1983687883229E-01
    37  3.6000000000000E-01  4.2675182327855E-01 -2.3499525119525E-01
    38  3.7000000000000E-01  4.5127471255925E-01 -2.5037751058360E-01
    39  3.8000000000000E-01  4.7624715999675E-01 -2.6591237823207E-01
    40  3.9000000000000E-01  5.0162041908395E-01 -2.8152403127223E-01
    41  4.0000000000000E-01  5.2734294802671E-01 -2.9713255618226E-01
    42  4.1000000000000E-01  5.5336063766366E-01 -3.1265445148107E-01
    43  4.2000000000000E-01  5.7961706421465E-01 -3.2800317570139E-01
    44  4.3000000000000E-01  6.0605376492827E-01 -3.4308973618377E-01
    45  4.4000000000000E-01  6.3261053446896E-01 -3.5782331377567E-01
    46  4.5000000000000E-01  6.5922573967100E-01 -3.7211191810543E-01
    47  4.6000000000000E-01  6.8583665009503E-01 -3.8586306773179E-01
    48  4.7000000000000E-01  7.1237978165180E-01 -3.9898448915062E-01
    49  4.8000000000000E-01  7.3879125041181E-01 -4.1138482837617E-01
    50  4.9000000000000E-01  7.6500713359819E-01 -4.2297436860566E-01
    51  5.0000000000000E-01  7.9096383466624E-01 -4.3366574732849E-01
    52  5.1000000000000E-01  8.1659844930669E-01 -4.4337466615469E-01
    53  5.2000000000000E-01  8.4184912917242E-01 -4.5202058661458E-01
    54  5.3000000000000E-01  8.6665544012078E-01 -4.5952740522359E-01
    55  5.4000000000000E-01  8.9095871178555E-01 -4.6582410121248E-01
    56  5.5000000000000E-01  9.1470237534482E-01 -4.7084535049517E-01
    57  5.6000000000000E-01  9.3783228643318E-01 -4.7453209968155E-01
    58  5.7000000000000E-01  9.6029703025763E-01 -4.7683209424083E-01
    59  5.8000000000000E-01  9.8204820611710E-01 -4.7770035527963E-01
    60  5.9000000000000E-01  1.0030406886928E+00 -4.7709959981542E-01
    61  6.0000000000000E-01  1.0232328636708E+00 -4.7500059989715E-01
    62  6.1000000000000E-01  1.0425868354772E+00 -4.7138247644716E-01
    63  6.2000000000000E-01  1.0610686051478E+00 -4.6623292426677E-01
    64  6.3000000000000E-01  1.0786482166179E+00 -4.5954836525883E-01
    65  6.4000000000000E-01  1.0952998699981E+00 -4.5133402756668E-01
    66  6.5000000000000E-01  1.1110020007017E+00 -4.4160394900705E-01
    67  6.6000000000000E-01  1.1257373235989E+00 -4.3038090387596E-01
    68  6.7000000000000E-01  1.1394928416975E+00 -4.1769625292713E-01