I     ONCVPSP-4.0.1  r_core=   2.36210   2.30625   2.50771
     53.0000      7.0000      220731    zatom,zion,pspd
     8      11   2     4   600     0    pspcod,pspxc,lmax,lloc,mmax,r2well
  5.99000000  4.00000000  0.00000000    rchrg fchrg qchrg
     2     2     2     0     0    nproj
     1     1           extension_switch
   0                         6.3893248227388E+00  7.2585459382435E-01
     1  0.0000000000000E+00  2.6015661847012E-11 -7.8909018208506E-11
     2  1.0000000000000E-02  1.8339345209277E-02 -2.4767375052690E-03
     3  2.0000000000000E-02  3.6697533335598E-02 -4.9988114464891E-03
     4  3.0000000000000E-02  5.5093248744681E-02 -7.6111639204934E-03
     5  4.0000000000000E-02  7.3544859703499E-02 -1.0357951188305E-02
     6  5.0000000000000E-02  9.2070262834055E-02 -1.3282157843230E-02
     7  6.0000000000000E-02  1.1068673055247E-01 -1.6425219426100E-02
     8  7.0000000000000E-02  1.2941076245785E-01 -1.9826656210373E-02
     9  8.0000000000000E-02  1.4825794160933E-01 -2.3523720800897E-02
    10  9.0000000000000E-02  1.6724279659769E-01 -2.7551062092521E-02
    11  1.0000000000000E-01  1.8637867027937E-01 -3.1940408019023E-02
    12  1.1000000000000E-01  2.0567759599745E-01 -3.6720269389927E-02
    13  1.2000000000000E-01  2.2515018206409E-01 -4.1915666963431E-02
    14  1.3000000000000E-01  2.4480550522523E-01 -4.7547883738992E-02
    15  1.4000000000000E-01  2.6465101376863E-01 -5.3634244274325E-02
    16  1.5000000000000E-01  2.8469244087307E-01 -6.0187922639555E-02
    17  1.6000000000000E-01  3.0493372872896E-01 -6.7217780417887E-02
    18  1.7000000000000E-01  3.2537696388966E-01 -7.4728235948138E-02
    19  1.8000000000000E-01  3.4602232423891E-01 -8.2719165782046E-02
    20  1.9000000000000E-01  3.6686803788291E-01 -9.1185839099180E-02
    21  2.0000000000000E-01  3.8791035419759E-01 -1.0011888558693E-01
    22  2.1000000000000E-01  4.0914352718107E-01 -1.0950429705319E-01
    23  2.2000000000000E-01  4.3055981118048E-01 -1.1932346279775E-01
    24  2.3000000000000E-01  4.5214946898112E-01 -1.2955323852557E-01
    25  2.4000000000000E-01  4.7390079216421E-01 -1.4016604834361E-01
    26  2.5000000000000E-01  4.9580013355937E-01 -1.5113001914435E-01
    27  2.6000000000000E-01  5.1783195153821E-01 -1.6240914644453E-01
    28  2.7000000000000E-01  5.3997886581812E-01 -1.7396349051978E-01
    29  2.8000000000000E-01  5.6222172436981E-01 -1.8574940145534E-01
    30  2.9000000000000E-01  5.8453968095009E-01 -1.9771977152218E-01
    31  3.0000000000000E-01  6.0691028271175E-01 -2.0982431308779E-01
    32  3.1000000000000E-01  6.2930956727751E-01 -2.2200986008339E-01
    33  3.2000000000000E-01  6.5171216860388E-01 -2.3422069087548E-01
    34  3.3000000000000E-01  6.7409143090415E-01 -2.4639887023117E-01
    35  3.4000000000000E-01  6.9641952984893E-01 -2.5848460792407E-01
    36  3.5000000000000E-01  7.1866760021652E-01 -2.7041663140312E-01
    37  3.6000000000000E-01  7.4080586912556E-01 -2.8213256983987E-01
    38  3.7000000000000E-01  7.6280379394855E-01 -2.9356934678292E-01
    39  3.8000000000000E-01  7.8463020397717E-01 -3.0466357858084E-01
    40  3.9000000000000E-01  8.0625344488938E-01 -3.1535197568851E-01
    41  4.0000000000000E-01  8.2764152505413E-01 -3.2557174394635E-01
    42  4.1000000000000E-01  8.4876226270170E-01 -3.3526098291792E-01
    43  4.2000000000000E-01  8.6958343298770E-01 -3.4435907838859E-01
    44  4.3000000000000E-01  8.9007291398452E-01 -3.5280708616726E-01
    45  4.4000000000000E-01  9.1019883064784E-01 -3.6054810439316E-01
    46  4.5000000000000E-01  9.2992969582560E-01 -3.6752763163145E-01
    47  4.6000000000000E-01  9.4923454740374E-01 -3.7369390814282E-01
    48  4.7000000000000E-01  9.6808308071636E-01 -3.7899823783476E-01
    49  4.8000000000000E-01  9.8644577538757E-01 -3.8339528854274E-01
    50  4.9000000000000E-01  1.0042940158180E+00 -3.8684336844921E-01
    51  5.0000000000000E-01  1.0216002045802E+00 -3.8930467662432E-01
    52  5.1000000000000E-01  1.0383378680443E+00 -3.9074552586547E-01
    53  5.2000000000000E-01  1.0544817536159E+00 -3.9113653621910E-01
    54  5.3000000000000E-01  1.0700079180368E+00 -3.9045279778864E-01
    55  5.4000000000000E-01  1.0848938062655E+00 -3.8867400166478E-01
    56  5.5000000000000E-01  1.0991183205329E+00 -3.8578453805535E-01
    57  5.6000000000000E-01  1.1126618792412E+00 -3.8177356094247E-01
    58  5.7000000000000E-01  1.1255064654560E+00 -3.7663501885095E-01
    59  5.8000000000000E-01  1.1376356648215E+00 -3.7036765157240E-01
    60  5.9000000000000E-01  1.1490346928107E+00 -3.6297495295280E-01
    61  6.0000000000000E-01  1.1596904113065E+00 -3.5446510011514E-01
    62  6.1000000000000E-01  1.1695913345916E+00 -3.4485084975053E-01
    63  6.2000000000000E-01  1.1787276249062E+00 -3.3414940236992E-01
    64  6.3000000000000E-01  1.1870910778174E+00 -3.2238223566160E-01
    65  6.4000000000000E-01  1.1946750977174E+00 -3.0957490834458E-01
    66  6.5000000000000E-01  1.2014746638495E+00 -2.9575683614435E-01
    67  6.6000000000000E-01  1.2074862873301E+00 -2.8096104174123E-01
    68  6.7000000000000E-01  1.2127079597075E+00 -2.6522388075279E-01
    69  6.8000000000000E-01  1.2171390936607E+00 -2.4858474600765E-01
    70  6.9000000000000E-01  1.2207804565045E+00 -2.3108575254730E-01
    71  7.0000000000000E-01  1.2236340972205E+00 -2.1277140595298E-01
    72  7.1000000000000E-01  1.2257032677834E+00 -1.9368825673638E-01
    73  7.2000000000000E-01  1.2269923395940E+00 -1.7388454365261E-01
    74  7.3000000000000E-01  1.2275067158700E+00 -1.5340982889219E-01
    75  7.4000000000000E-01  1.2272527408702E+00 -1.3231462818349E-01
    76  7.5000000000000E-01  1.2262376068538E+00 -1.1065003888815E-01
    77  7.6000000000000E-01  1.2244692596898E+00 -8.8467369198561E-02
    78  7.7000000000000E-01  1.2219563040393E+00 -6.5817771547373E-02
    79  7.8000000000000E-01  1.2187079090308E+00 -4.2751883316184E-02
    80  7.9000000000000E-01  1.2147337153443E+00 -1.9319477880549E-02
    81  8.0000000000000E-01  1.2100437445994E+00  4.4308710452306E-03
    82  8.1000000000000E-01  1.2046483119222E+00  2.8452108898951E-02
    83  8.2000000000000E-01  1.1985579425325E+00  5.2699000855903E-02
    84  8.3000000000000E-01  1.1917832931547E+00  7.7128410914089E-02
    85  8.4000000000000E-01  1.1843350790116E+00  1.0169955705380E-01
    86  8.5000000000000E-01  1.1762240071029E+00  1.2637424023646E-01
    87  8.6000000000000E-01  1.1674607164189E+00  1.5111704521842E-01
    88  8.7000000000000E-01  1.1580557256671E+00  1.7589551138409E-01
    89  8.8000000000000E-01  1.1480193890247E+00  2.0068027204910E-01
    90  8.9000000000000E-01  1.1373618603517E+00  2.2544516094506E-01
    91  9.0000000000000E-01  1.1260930662214E+00  2.5016728487110E-01
    92  9.1000000000000E-01  1.1142226880407E+00  2.7482706178313E-01
    93  9.2000000000000E-01  1.1017601534461E+00  2.9940822388485E-01
    94  9.3000000000000E-01  1.0887146370738E+00  3.2389778558481E-01
    95  9.4000000000000E-01  1.0750950707109E+00  3.4828597648839E-01
    96  9.5000000000000E-01  1.0609101627428E+00  3.7256613989893E-01
    97  9.6000000000000E-01  1.0461684267229E+00  3.9673459760728E-01
    98  9.7000000000000E-01  1.0308782187968E+00  4.2079048205041E-01
    99  9.8000000000000E-01  1.0150477836263E+00  4.4473553721547E-01
   100  9.9000000000000E-01  9.9868530836997E-01  4.6857388995200E-01
   101  1.0000000000000E+00  9.8179898419430E-01  4.9231179363194E-01
   102  1.0100000000000E+00  9.6439707470595E-01  5.1595734635878E-01
   103  1.0200000000000E+00  9.4648799062328E-01  5.3952018617532E-01
   104  1.0300000000000E+00  9.2808036993153E-01  5.6301116594737E-01
   105  1.0400000000000E+00  9.0918316270173E-01  5.8644201081085E-01
   106  1.0500000000000E+00  8.8980571969488E-01  6.0982496125599E-01
   107  1.0600000000000E+00  8.6995788382036E-01  6.3317240508613E-01
   108  1.0700000000000E+00  8.4965008347366E-01  6.5649650162593E-01
   109  1.0800000000000E+00  8.2889342674203E-01  6.7980880166479E-01
   110  1.0900000000000E+00  8.0769979543847E-01  7.0311986670379E-01
   111  1.1000000000000E+00  7.8608193790518E-01  7.2643889112808E-01
   112  1.1100000000000E+00  7.6405355951769E-01  7.4977333094940E-01
   113  1.1200000000000E+00  7.4162940981915E-01  7.7312854275695E-01
   114  1.1300000000000E+00  7.1882536522317E-01  7.9650743647551E-01
   115  1.1400000000000E+00  6.9565850624089E-01  8.1991014546147E-01
   116  1.1500000000000E+00  6.7214718821503E-01  8.4333371736658E-01
   117  1.1600000000000E+00  6.4831110458028E-01  8.6677182906847E-01
   118  1.1700000000000E+00  6.2417134171445E-01  8.9021452880764E-01
   119  1.1800000000000E+00  5.9975042449934E-01  9.1364800847984E-01
   120  1.1900000000000E+00  5.7507235177306E-01  9.3705440881775E-01
   121  1.2000000000000E+00  5.5016262092652E-01  9.6041165995083E-01
   122  1.2100000000000E+00  5.2504824097506E-01  9.8369335956675E-01
   123  1.2200000000000E+00  4.9975773352238E-01  1.0068686906055E+00
   124  1.2300000000000E+00  4.7432112112559E-01  1.0299023801081E+00
   125  1.2400000000000E+00  4.4876990266851E-01  1.0527547005113E+00
   126  1.2500000000000E+00  4.2313701545311E-01  1.0753815143364E+00
   127  1.2600000000000E+00  3.9745678382649E-01  1.0977343628593E+00
   128  1.2700000000000E+00  3.7176485427151E-01  1.1197605989846E+00
   129  1.2800000000000E+00  3.4609811700280E-01  1.1414035641649E+00
   130  1.2900000000000E+00  3.2049461422461E-01  1.1626028088311E+00
   131  1.3000000000000E+00  2.9499343532334E-01  1.1832943554131E+00
   132  1.3100000000000E+00  2.6963459938321E-01  1.2034110026516E+00
   133  1.3200000000000E+00  2.4445892552810E-01  1.2228826695246E+00
   134  1.3300000000000E+00  2.1950789170547E-01  1.2416367767456E+00
   135  1.3400000000000E+00  1.9482348263779E-01  1.2595986634306E+00
   136  1.3500000000000E+00  1.7044802777313E-01  1.2766920361886E+00
   137  1.3600000000000E+00  1.4642403016656E-01  1.2928394475653E+00
   138  1.3700000000000E+00  1.2279398732043E-01  1.3079628004612E+00
   139  1.3800000000000E+00  9.9600205099517E-02  1.3219838748597E+00
   140  1.3900000000000E+00  7.6884605918717E-02  1.3348248729449E+00
   141  1.4000000000000E+00  5.4688532474042E-02  1.3464089784551E+00
   142  1.4100000000000E+00  3.3052548352418E-02  1.3566609259140E+00
   143  1.4200000000000E+00  1.2016236910666E-02  1.3655075752157E+00
   144  1.4300000000000E+00 -8.3820001407984E-03  1.3728784868978E+00
   145  1.4400000000000E+00 -2.8105142979383E-02  1.3787064933365E+00
   146  1.4500000000000E+00 -4.7117751242881E-02  1.3829282610338E+00
   147  1.4600000000000E+00 -6.5386157426610E-02  1.3854848391328E+00
   148  1.4700000000000E+00 -8.2878654597444E-02  1.3863221893110E+00
   149  1.4800000000000E+00 -9.9565676927310E-02  1.3853916922454E+00
   150  1.4900000000000E+00 -1.1541997157086E-01  1.3826506259285E+00
   151  1.5000000000000E+00 -1.3041676044550E-01  1.3780626112383E+00
   152  1.5100000000000E+00 -1.4453389051714E-01  1.3715980203264E+00
   153  1.5200000000000E+00 -1.5775197125090E-01  1.3632343435817E+00
   154  1.5300000000000E+00 -1.7005449795374E-01  1.3529565111654E+00
   155  1.5400000000000E+00 -1.8142795981306E-01  1.3407571653727E+00
   156  1.5500000000000E+00 -1.9186193152338E-01  1.3266368803822E+00
   157  1.5600000000000E+00 -2.0134914749015E-01  1.3106043262765E+00
   158  1.5700000000000E+00 -2.0988555770551E-01  1.2926763745785E+00
   159  1.5800000000000E+00 -2.1747036450512E-01  1.2728781429293E+00
   160  1.5900000000000E+00 -2.2410603953582E-01  1.2512429769371E+00
   161  1.6000000000000E+00 -2.2979832039200E-01  1.2278123676544E+00
   162  1.6100000000000E+00 -2.3455618651125E-01  1.2026358035804E+00
   163  1.6200000000000E+00 -2.3839181405752E-01  1.1757705565409E+00
   164  1.6300000000000E+00 -2.4132050966112E-01  1.1472814012664E+00
   165  1.6400000000000E+00 -2.4336062302843E-01  1.1172402689561E+00
   166  1.6500000000000E+00 -2.4453343857891E-01  1.0857258355972E+00
   167  1.6600000000000E+00 -2.4486304641257E-01  1.0528230462779E+00
   168  1.6700000000000E+00 -2.4437619305507E-01  1.0186225772080E+00
   169  1.6800000000000E+00 -2.4310211256527E-01  9.8322023757458E-01
   170  1.6900000000000E+00 -2.4107233874117E-01  9.4671631393248E-01
   171  1.7000000000000E+00 -2.3832049945405E-01  9.0921486153246E-01
   172  1.7100000000000E+00 -2.3488209324306E-01  8.7082293878589E-01
   173  1.7200000000000E+00 -2.3079427057901E-01  8.3164997530940E-01
   174  1.7300000000000E+00 -2.2609581052280E-01  7.9180886945137E-01
   175  1.7400000000000E+00 -2.2082713494240E-01  7.5141718559528E-01
   176  1.7500000000000E+00 -2.1503014214617E-01  7.1059666828900E-01
   177  1.7600000000000E+00 -2.0874800769752E-01  6.6947252051152E-01
   178  1.7700000000000E+00 -2.0202497645296E-01  6.2817266331321E-01
   179  1.7800000000000E+00 -1.9490614587427E-01  5.8682696855941E-01
   180  1.7900000000000E+00 -1.8743724238913E-01  5.4556647291575E-01
   181  1.8000000000000E+00 -1.7966439249799E-01  5.0452257967695E-01
   182  1.8100000000000E+00 -1.7163389029147E-01  4.6382625439567E-01
   183  1.8200000000000E+00 -1.6339196307503E-01  4.2360722030480E-01
   184  1.8300000000000E+00 -1.5498453681352E-01  3.8399315949595E-01
   185  1.8400000000000E+00 -1.4645700309373E-01  3.4510892563154E-01
   186  1.8500000000000E+00 -1.3785398928308E-01  3.0707577381402E-01
   187  1.8600000000000E+00 -1.2921913353361E-01  2.7001061308114E-01
   188  1.8700000000000E+00 -1.2059486622612E-01  2.3402528671951E-01
   189  1.8800000000000E+00 -1.1202219940747E-01  1.9922588544980E-01
   190  1.8900000000000E+00 -1.0354052570194E-01  1.6571209823250E-01
   191  1.9000000000000E+00 -9.5187428091900E-02  1.3357660509725E-01
   192  1.9100000000000E+00 -8.6998501899390E-02  1.0290451623302E-01
   193  1.9200000000000E+00 -7.9007190195722E-02  7.3772861168283E-02
   194  1.9300000000000E+00 -7.1244633760773E-02  4.6250131495921E-02
   195  1.9400000000000E+00 -6.3739536617277E-02  2.0395880299923E-02
   196  1.9500000000000E+00 -5.6518048050154E-02 -3.7396189544524E-03
   197  1.9600000000000E+00 -4.9603661891078E-02 -2.6115651769673E-02
   198  1.9700000000000E+00 -4.3017133738740E-02 -4.6701278234659E-02
   199  1.9800000000000E+00 -3.6776416641955E-02 -6.5475483467390E-02
   200  1.9900000000000E+00 -3.0896615653334E-02 -8.2427261790774E-02
   201  2.0000000000000E+00 -2.5389961521605E-02 -9.7555634040959E-02
   202  2.0100000000000E+00 -2.0265803649152E-02 -1.1086959788727E-01
   203  2.0200000000000E+00 -1.5530622310874E-02 -1.2238801146432E-01
   204  2.0300000000000E+00 -1.1188059996057E-02 -1.3213941105112E-01
   205  2.0400000000000E+00 -7.2389715907267E-03 -1.4016176405476E-01
   206  2.0500000000000E+00 -3.6814929922309E-03 -1.4650215892920E-01
   207  2.0600000000000E+00 -5.1112760927981E-04 -1.5121643415665E-01
   208  2.0700000000000E+00  2.2791499201026E-03 -1.5436874880307E-01
   209  2.0800000000000E+00  4.6987735817672E-03 -1.5603109755967E-01
   210  2.0900000000000E+00  6.7594503212913E-03 -1.5628277360609E-01
   211  2.1000000000000E+00  8.4750098803499E-03 -1.5520978297853E-01
   212  2.1100000000000E+00  9.8612412549913E-03 -1.5290421445851E-01
   213  2.1200000000000E+00  1.0935716988851E-02 -1.4946356930824E-01
   214  2.1300000000000E+00  1.1717606607269E-02 -1.4499005549011E-01
   215  2.1400000000000E+00  1.2227480575890E-02 -1.3958985126796E-01
   216  2.1500000000000E+00  1.2487106217104E-02 -1.3337234321857E-01
   217  2.1600000000000E+00  1.2519237101024E-02 -1.2644934399550E-01
   218  2.1700000000000E+00  1.2347397455445E-02 -1.1893429525026E-01
   219  2.1800000000000E+00  1.1995663175155E-02 -1.1094146122603E-01
   220  2.1900000000000E+00  1.1488441046772E-02 -1.0258511867736E-01
   221  2.2000000000000E+00  1.0850248823854E-02 -9.3978751821778E-02
   222  2.2100000000000E+00  1.0105492019462E-02 -8.5234240480143E-02
   223  2.2200000000000E+00  9.2782404765564E-03 -7.6461051504270E-02
   224  2.2300000000000E+00  8.3920669208181E-03 -6.7765622016715E-02
   225  2.2400000000000E+00  7.4697669916350E-03 -5.9250392518050E-02
   226  2.2500000000000E+00  6.5322417911564E-03 -5.1010290295239E-02
   227  2.2600000000000E+00  5.5975898807630E-03 -4.3129849496455E-02
   228  2.2700000000000E+00  4.6854697847426E-03 -3.5696369293226E-02
   229  2.2800000000000E+00  3.8151114435541E-03 -2.8793800158019E-02
   230  2.2900000000000E+00  3.0036715481604E-03 -2.2497671940778E-02
   231  2.3000000000000E+00  2.2665374528506E-03 -1.6875932919577E-02
   232  2.3100000000000E+00  1.6171022013267E-03 -1.1988197856270E-02
   233  2.3200000000000E+00  1.0666645587296E-03 -7.8853834948797E-03
   234  2.3300000000000E+00  6.2456052899358E-04 -4.6110864364038E-03
   235  2.3400000000000E+00  2.9537176906989E-04 -2.1810743823013E-03
   236  2.3500000000000E+00  9.0722002133616E-05 -6.7121828780714E-04
   237  2.3600000000000E+00  6.4713207641306E-06 -4.8339800672226E-05
   238  2.3700000000000E+00 -5.2482363864443E-06  3.8778034493435E-05
   239  2.3800000000000E+00  1.4979103853460E-06 -1.1054398835009E-05
   240  2.3900  0. -0.
   241  2.4000 -0.  0.
   242  2.4100  0. -0.
   243  2.4200  0.  0.
   244  2.4300  0.  0.
   245  2.4400  0.  0.
   246  2.4500  0.  0.
   247  2.4600  0.  0.
   248  2.4700  0.  0.
   249  2.4800  0.  0.
   250  2.4900  0.  0.
   251  2.5000  0.  0.
   252  2.5100  0.  0.
   253  2.5200  0.  0.
   254  2.5300  0.  0.
   255  2.5400  0.  0.
   256  2.5500  0.  0.
   257  2.5600  0.  0.
   258  2.5700  0.  0.
   259  2.5800  0.  0.
   260  2.5900  0.  0.
   261  2.6000  0.  0.
   262  2.6100  0.  0.
   263  2.6200  0.  0.
   264  2.6300  0.  0.
   265  2.6400  0.  0.
   266  2.6500  0.  0.
   267  2.6600  0.  0.
   268  2.6700  0.  0.
   269  2.6800  0.  0.
   270  2.6900  0.  0.
   271  2.7000  0.  0.
   272  2.7100  0.  0.
   273  2.7200  0.  0.
   274  2.7300  0.  0.
   275  2.7400  0.  0.
   276  2.7500  0.  0.
   277  2.7600  0.  0.
   278  2.7700  0.  0.
   279  2.7800  0.  0.
   280  2.7900  0.  0.
   281  2.8000  0.  0.
   282  2.8100  0.  0.
   283  2.8200  0.  0.
   284  2.8300  0.  0.
   285  2.8400  0.  0.
   286  2.8500  0.  0.
   287  2.8600  0.  0.
   288  2.8700  0.  0.
   289  2.8800  0.  0.
   290  2.8900  0.  0.
   291  2.9000  0.  0.
   292  2.9100  0.  0.
   293  2.9200  0.  0.
   294  2.9300  0.  0.
   295  2.9400  0.  0.
   296  2.9500  0.  0.
   297  2.9600  0.  0.
   298  2.9700  0.  0.
   299  2.9800  0.  0.
   300  2.9900  0.  0.
   301  3.0000  0.  0.
   302  3.0100  0.  0.
   303  3.0200  0.  0.
   304  3.0300  0.  0.
   305  3.0400  0.  0.
   306  3.0500  0.  0.
   307  3.0600  0.  0.
   308  3.0700  0.  0.
   309  3.0800  0.  0.
   310  3.0900  0.  0.
   311  3.1000  0.  0.
   312  3.1100  0.  0.
   313  3.1200  0.  0.
   314  3.1300  0.  0.
   315  3.1400  0.  0.
   316  3.1500  0.  0.
   317  3.1600  0.  0.
   318  3.1700  0.  0.
   319  3.1800  0.  0.
   320  3.1900  0.  0.
   321  3.2000  0.  0.
   322  3.2100  0.  0.
   323  3.2200  0.  0.
   324  3.2300  0.  0.
   325  3.2400  0.  0.
   326  3.2500  0.  0.
   327  3.2600  0.  0.
   328  3.2700  0.  0.
   329  3.2800  0.  0.
   330  3.2900  0.  0.
   331  3.3000  0.  0.
   332  3.3100  0.  0.
   333  3.3200  0.  0.
   334  3.3300  0.  0.
   335  3.3400  0.  0.
   336  3.3500  0.  0.
   337  3.3600  0.  0.
   338  3.3700  0.  0.
   339  3.3800  0.  0.
   340  3.3900  0.  0.
   341  3.4000  0.  0.
   342  3.4100  0.  0.
   343  3.4200  0.  0.
   344  3.4300  0.  0.
   345  3.4400  0.  0.
   346  3.4500  0.  0.
   347  3.4600  0.  0.
   348  3.4700  0.  0.
   349  3.4800  0.  0.
   350  3.4900  0.  0.
   351  3.5000  0.  0.
   352  3.5100  0.  0.
   353  3.5200  0.  0.
   354  3.5300  0.  0.
   355  3.5400  0.  0.
   356  3.5500  0.  0.
   357  3.5600  0.  0.
   358  3.5700  0.  0.
   359  3.5800  0.  0.
   360  3.5900  0.  0.
   361  3.6000  0.  0.
   362  3.6100  0.  0.
   363  3.6200  0.  0.
   364  3.6300  0.  0.
   365  3.6400  0.  0.
   366  3.6500  0.  0.
   367  3.6600  0.  0.
   368  3.6700  0.  0.
   369  3.6800  0.  0.
   370  3.6900  0.  0.
   371  3.7000  0.  0.
   372  3.7100  0.  0.
   373  3.7200  0.  0.
   374  3.7300  0.  0.
   375  3.7400  0.  0.
   376  3.7500  0.  0.
   377  3.7600  0.  0.
   378  3.7700  0.  0.
   379  3.7800  0.  0.
   380  3.7900  0.  0.
   381  3.8000  0.  0.
   382  3.8100  0.  0.
   383  3.8200  0.  0.
   384  3.8300  0.  0.
   385  3.8400  0.  0.
   386  3.8500  0.  0.
   387  3.8600  0.  0.
   388  3.8700  0.  0.
   389  3.8800  0.  0.
   390  3.8900  0.  0.
   391  3.9000  0.  0.
   392  3.9100  0.  0.
   393  3.9200  0.  0.
   394  3.9300  0.  0.
   395  3.9400  0.  0.
   396  3.9500  0.  0.
   397  3.9600  0.  0.
   398  3.9700  0.  0.
   399  3.9800  0.  0.
   400  3.9900  0.  0.
   401  4.0000  0.  0.
   402  4.0100  0.  0.
   403  4.0200  0.  0.
   404  4.0300  0.  0.
   405  4.0400  0.  0.
   406  4.0500  0.  0.
   407  4.0600  0.  0.
   408  4.0700  0.  0.
   409  4.0800  0.  0.
   410  4.0900  0.  0.
   411  4.1000  0.  0.
   412  4.1100  0.  0.
   413  4.1200  0.  0.
   414  4.1300  0.  0.
   415  4.1400  0.  0.
   416  4.1500  0.  0.
   417  4.1600  0.  0.
   418  4.1700  0.  0.
   419  4.1800  0.  0.
   420  4.1900  0.  0.
   421  4.2000  0.  0.
   422  4.2100  0.  0.
   423  4.2200  0.  0.
   424  4.2300  0.  0.
   425  4.2400  0.  0.
   426  4.2500  0.  0.
   427  4.2600  0.  0.
   428  4.2700  0.  0.
   429  4.2800  0.  0.
   430  4.2900  0.  0.
   431  4.3000  0.  0.
   432  4.3100  0.  0.
   433  4.3200  0.  0.
   434  4.3300  0.  0.
   435  4.3400  0.  0.
   436  4.3500  0.  0.
   437  4.3600  0.  0.
   438  4.3700  0.  0.
   439  4.3800  0.  0.
   440  4.3900  0.  0.
   441  4.4000  0.  0.
   442  4.4100  0.  0.
   443  4.4200  0.  0.
   444  4.4300  0.  0.
   445  4.4400  0.  0.
   446  4.4500  0.  0.
   447  4.4600  0.  0.
   448  4.4700  0.  0.
   449  4.4800  0.  0.
   450  4.4900  0.  0.
   451  4.5000  0.  0.
   452  4.5100  0.  0.
   453  4.5200  0.  0.
   454  4.5300  0.  0.
   455  4.5400  0.  0.
   456  4.5500  0.  0.
   457  4.5600  0.  0.
   458  4.5700  0.  0.
   459  4.5800  0.  0.
   460  4.5900  0.  0.
   461  4.6000  0.  0.
   462  4.6100  0.  0.
   463  4.6200  0.  0.
   464  4.6300  0.  0.
   465  4.6400  0.  0.
   466  4.6500  0.  0.
   467  4.6600  0.  0.
   468  4.6700  0.  0.
   469  4.6800  0.  0.
   470  4.6900  0.  0.
   471  4.7000  0.  0.
   472  4.7100  0.  0.
   473  4.7200  0.  0.
   474  4.7300  0.  0.
   475  4.7400  0.  0.
   476  4.7500  0.  0.
   477  4.7600  0.  0.
   478  4.7700  0.  0.
   479  4.7800  0.  0.
   480  4.7900  0.  0.
   481  4.8000  0.  0.
   482  4.8100  0.  0.
   483  4.8200  0.  0.
   484  4.8300  0.  0.
   485  4.8400  0.  0.
   486  4.8500  0.  0.
   487  4.8600  0.  0.
   488  4.8700  0.  0.
   489  4.8800  0.  0.
   490  4.8900  0.  0.
   491  4.9000  0.  0.
   492  4.9100  0.  0.
   493  4.9200  0.  0.
   494  4.9300  0.  0.
   495  4.9400  0.  0.
   496  4.9500  0.  0.
   497  4.9600  0.  0.
   498  4.9700  0.  0.
   499  4.9800  0.  0.
   500  4.9900  0.  0.
   501  5.0000  0.  0.
   502  5.0100  0.  0.
   503  5.0200  0.  0.
   504  5.0300  0.  0.
   505  5.0400  0.  0.
   506  5.0500  0.  0.
   507  5.0600  0.  0.
   508  5.0700  0.  0.
   509  5.0800  0.  0.
   510  5.0900  0.  0.
   511  5.1000  0.  0.
   512  5.1100  0.  0.
   513  5.1200  0.  0.
   514  5.1300  0.  0.
   515  5.1400  0.  0.
   516  5.1500  0.  0.
   517  5.1600  0.  0.
   518  5.1700  0.  0.
   519  5.1800  0.  0.
   520  5.1900  0.  0.
   521  5.2000  0.  0.
   522  5.2100  0.  0.
   523  5.2200  0.  0.
   524  5.2300  0.  0.
   525  5.2400  0.  0.
   526  5.2500  0.  0.
   527  5.2600  0.  0.
   528  5.2700  0.  0.
   529  5.2800  0.  0.
   530  5.2900  0.  0.
   531  5.3000  0.  0.
   532  5.3100  0.  0.
   533  5.3200  0.  0.
   534  5.3300  0.  0.
   535  5.3400  0.  0.
   536  5.3500  0.  0.
   537  5.3600  0.  0.
   538  5.3700  0.  0.
   539  5.3800  0.  0.
   540  5.3900  0.  0.
   541  5.4000  0.  0.
   542  5.4100  0.  0.
   543  5.4200  0.  0.
   544  5.4300  0.  0.
   545  5.4400  0.  0.
   546  5.4500  0.  0.
   547  5.4600  0.  0.
   548  5.4700  0.  0.
   549  5.4800  0.  0.
   550  5.4900  0.  0.
   551  5.5000  0.  0.
   552  5.5100  0.  0.
   553  5.5200  0.  0.
   554  5.5300  0.  0.
   555  5.5400  0.  0.
   556  5.5500  0.  0.
   557  5.5600  0.  0.
   558  5.5700  0.  0.
   559  5.5800  0.  0.
   560  5.5900  0.  0.
   561  5.6000  0.  0.
   562  5.6100  0.  0.
   563  5.6200  0.  0.
   564  5.6300  0.  0.
   565  5.6400  0.  0.
   566  5.6500  0.  0.
   567  5.6600  0.  0.
   568  5.6700  0.  0.
   569  5.6800  0.  0.
   570  5.6900  0.  0.
   571  5.7000  0.  0.
   572  5.7100  0.  0.
   573  5.7200  0.  0.
   574  5.7300  0.  0.
   575  5.7400  0.  0.
   576  5.7500  0.  0.
   577  5.7600  0.  0.
   578  5.7700  0.  0.
   579  5.7800  0.  0.
   580  5.7900  0.  0.
   581  5.8000  0.  0.
   582  5.8100  0.  0.
   583  5.8200  0.  0.
   584  5.8300  0.  0.
   585  5.8400  0.  0.
   586  5.8500  0.  0.
   587  5.8600  0.  0.
   588  5.8700  0.  0.
   589  5.8800  0.  0.
   590  5.8900  0.  0.
   591  5.9000  0.  0.
   592  5.9100  0.  0.
   593  5.9200  0.  0.
   594  5.9300  0.  0.
   595  5.9400  0.  0.
   596  5.9500  0.  0.
   597  5.9600  0.  0.
   598  5.9700  0.  0.
   599  5.9800  0.  0.
   600  5.9900  0.  0.
   1                         4.9376325488114E+00  6.6532321664272E-01
     1  0.0000000000000E+00  4.3947721503623E-10 -1.0206870106055E-09
     2  1.0000000000000E-02  4.7207628355563E-04 -4.1629278374045E-04
     3  2.0000000000000E-02  1.8865190444010E-03 -1.6617321954709E-03
     4  3.0000000000000E-02  4.2379890970053E-03 -3.7260442606815E-03
     5  4.0000000000000E-02  7.5176511682794E-03 -6.5922479341631E-03
     6  5.0000000000000E-02  1.1713268102044E-02 -1.0236866489226E-02
     7  6.0000000000000E-02  1.6809331056747E-02 -1.4630219530264E-02
     8  7.0000000000000E-02  2.2787224033092E-02 -1.9736791756661E-02
     9  8.0000000000000E-02  2.9625420628788E-02 -2.5515673585325E-02
    10  9.0000000000000E-02  3.7299710504288E-02 -3.1921067781021E-02
    11  1.0000000000000E-01  4.5783452661467E-02 -3.8902855360564E-02
    12  1.1000000000000E-01  5.5047852291452E-02 -4.6407213240286E-02
    13  1.2000000000000E-01  6.5062257642556E-02 -5.4377275396278E-02
    14  1.3000000000000E-01  7.5794473098498E-02 -6.2753828713001E-02
    15  1.4000000000000E-01  8.7211084443970E-02 -7.1476034215622E-02
    16  1.5000000000000E-01  9.9277792132082E-02 -8.0482164021576E-02
    17  1.6000000000000E-01  1.1195974825824E-01 -8.9710344111970E-02
    18  1.7000000000000E-01  1.2522189288932E-01 -9.9099292917350E-02
    19  1.8000000000000E-01  1.3902928539615E-01 -1.0858904573642E-01
    20  1.9000000000000E-01  1.5334742649179E-01 -1.1812165516102E-01
    21  2.0000000000000E-01  1.6814256678737E-01 -1.2764185796438E-01
    22  2.1000000000000E-01  1.8338199783953E-01 -1.3709769931937E-01
    23  2.2000000000000E-01  1.9903432187840E-01 -1.4644110574436E-01
    24  2.3000000000000E-01  2.1506969666822E-01 -1.5562839882043E-01
    25  2.4000000000000E-01  2.3146005226280E-01 -1.6462074247681E-01
    26  2.5000000000000E-01  2.4817927677020E-01 -1.7338451749331E-01
    27  2.6000000000000E-01  2.6520336863180E-01 -1.8189161780780E-01
    28  2.7000000000000E-01  2.8251055334511E-01 -1.9011966423273E-01
    29  2.8000000000000E-01  3.0008136301281E-01 -1.9805213226482E-01
    30  2.9000000000000E-01  3.1789867757620E-01 -2.0567839180182E-01
    31  3.0000000000000E-01  3.3594772708488E-01 -2.1299365774732E-01
    32  3.1000000000000E-01  3.5421605485869E-01 -2.1999885167271E-01
    33  3.2000000000000E-01  3.7269344190788E-01 -2.2670037590049E-01
    34  3.3000000000000E-01  3.9137179348559E-01 -2.3310980255982E-01
    35  3.4000000000000E-01  4.1024498914779E-01 -2.3924348132770E-01
    36  3.5000000000000E-01  4.2930869818275E-01 -2.4512207069383E-01
    37  3.6000000000000E-01  4.4856016273925E-01 -2.5076999865762E-01
    38  3.7000000000000E-01  4.6799795142402E-01 -2.5621485976947E-01
    39  3.8000000000000E-01  4.8762168654850E-01 -2.6148675635122E-01
    40  3.9000000000000E-01  5.0743174857818E-01 -2.6661759256012E-01
    41  4.0000000000000E-01  5.2742896166870E-01 -2.7164033068615E-01
    42  4.1000000000000E-01  5.4761426445829E-01 -2.7658821968257E-01
    43  4.2000000000000E-01  5.6798837052115E-01 -2.8149400641716E-01
    44  4.3000000000000E-01  5.8855142306822E-01 -2.8638914048762E-01
    45  4.4000000000000E-01  6.0930264860775E-01 -2.9130298366474E-01
    46  4.5000000000000E-01  6.3024001434614E-01 -2.9626203510604E-01
    47  4.6000000000000E-01  6.5135989411804E-01 -3.0128918341891E-01
    48  4.7000000000000E-01  6.7265674758368E-01 -3.0640299644515E-01
    49  4.8000000000000E-01  6.9412281732039E-01 -3.1161705928878E-01
    50  4.9000000000000E-01  7.1574784826561E-01 -3.1693937061987E-01
    51  5.0000000000000E-01  7.3751883374119E-01 -3.2237180666324E-01
    52  5.1000000000000E-01  7.5941979200717E-01 -3.2790966152814E-01
    53  5.2000000000000E-01  7.8143157695823E-01 -3.3354127166285E-01
    54  5.3000000000000E-01  8.0353172619417E-01 -3.3924773123441E-01
    55  5.4000000000000E-01  8.2569434926811E-01 -3.4500270415160E-01
    56  5.5000000000000E-01  8.4789005845044E-01 -3.5077233727930E-01
    57  5.6000000000000E-01  8.7008594384620E-01 -3.5651527814996E-01
    58  5.7000000000000E-01  8.9224559417497E-01 -3.6218279917634E-01
    59  5.8000000000000E-01  9.1432916397213E-01 -3.6771902902629E-01
    60  5.9000000000000E-01  9.3629348740447E-01 -3.7306129044912E-01
    61  6.0000000000000E-01  9.5809223831845E-01 -3.7814054246394E-01
    62  6.1000000000000E-01  9.7967613556311E-01 -3.8288192344731E-01
    63  6.2000000000000E-01  1.0009931920584E+00 -3.8720539031030E-01
    64  6.3000000000000E-01  1.0219890055215E+00 -3.9102644764928E-01