Xe    ONCVPSP-4.0.1  r_core=   2.50584   2.50584   2.50584
     54.0000      8.0000      220726    zatom,zion,pspd
     8      11   2     4   600     0    pspcod,pspxc,lmax,lloc,mmax,r2well
  5.99000000  8.00000000  0.00000000    rchrg fchrg qchrg
     2     2     2     0     0    nproj
     1     1           extension_switch
   0                         4.7831698044321E+00  3.7560667012767E-01
     1  0.0000000000000E+00  1.2332190824083E-11 -4.7785015527824E-11
     2  1.0000000000000E-02  2.8095253052104E-02 -3.3444158324165E-03
     3  2.0000000000000E-02  5.6183303662438E-02 -6.7151577036835E-03
     4  3.0000000000000E-02  8.4256889640315E-02 -1.0138295210712E-02
     5  4.0000000000000E-02  1.1230862976309E-01 -1.3639386860166E-02
     6  5.0000000000000E-02  1.4033096542172E-01 -1.7243228995269E-02
     7  6.0000000000000E-02  1.6831610365150E-01 -2.0973610054978E-02
     8  7.0000000000000E-02  1.9625596199496E-01 -2.4853071886678E-02
     9  8.0000000000000E-02  2.2414211563201E-01 -2.8902679785712E-02
    10  9.0000000000000E-02  2.5196574719658E-01 -3.3141802875978E-02
    11  1.0000000000000E-01  2.7971759968152E-01 -3.7587906375695E-02
    12  1.1000000000000E-01  3.0738793281222E-01 -4.2256357211926E-02
    13  1.2000000000000E-01  3.3496648324626E-01 -4.7160244356874E-02
    14  1.3000000000000E-01  3.6244242893070E-01 -5.2310215159259E-02
    15  1.4000000000000E-01  3.8980435792025E-01 -5.7714328835423E-02
    16  1.5000000000000E-01  4.1704024192996E-01 -6.3377928168605E-02
    17  1.6000000000000E-01  4.4413741486358E-01 -6.9303530341045E-02
    18  1.7000000000000E-01  4.7108255652561E-01 -7.5490737693862E-02
    19  1.8000000000000E-01  4.9786168168974E-01 -8.1936169074203E-02
    20  1.9000000000000E-01  5.2446013466035E-01 -8.8633412289399E-02
    21  2.0000000000000E-01  5.5086258942650E-01 -9.5572998044295E-02
    22  2.1000000000000E-01  5.7705305547004E-01 -1.0274239559193E-01
    23  2.2000000000000E-01  6.0301488925118E-01 -1.1012603017998E-01
    24  2.3000000000000E-01  6.2873081135630E-01 -1.1770532222711E-01
    25  2.4000000000000E-01  6.5418292925444E-01 -1.2545874801502E-01
    26  2.5000000000000E-01  6.7935276557092E-01 -1.3336192153605E-01
    27  2.6000000000000E-01  7.0422129174862E-01 -1.4138769699091E-01
    28  2.7000000000000E-01  7.2876896693128E-01 -1.4950629129125E-01
    29  2.8000000000000E-01  7.5297578186724E-01 -1.5768542578402E-01
    30  2.9000000000000E-01  7.7682130759775E-01 -1.6589048628411E-01
    31  3.0000000000000E-01  8.0028474866134E-01 -1.7408470037563E-01
    32  3.1000000000000E-01  8.2334500051466E-01 -1.8222933082420E-01
    33  3.2000000000000E-01  8.4598071084122E-01 -1.9028388383212E-01
    34  3.3000000000000E-01  8.6817034439255E-01 -1.9820633076575E-01
    35  3.4000000000000E-01  8.8989225098184E-01 -2.0595334189213E-01
    36  3.5000000000000E-01  9.1112473622807E-01 -2.1348053057857E-01
    37  3.6000000000000E-01  9.3184613462939E-01 -2.2074270633656E-01
    38  3.7000000000000E-01  9.5203488452788E-01 -2.2769413502974E-01
    39  3.8000000000000E-01  9.7166960451428E-01 -2.3428880451557E-01
    40  3.9000000000000E-01  9.9072917081057E-01 -2.4048069395192E-01
    41  4.0000000000000E-01  1.0091927951609E+00 -2.4622404497327E-01
    42  4.1000000000000E-01  1.0270401027564E+00 -2.5147363292728E-01
    43  4.2000000000000E-01  1.0442512097197E+00 -2.5618503636032E-01
    44  4.3000000000000E-01  1.0608067996737E+00 -2.6031490295134E-01
    45  4.4000000000000E-01  1.0766881989287E+00 -2.6382121011617E-01
    46  4.5000000000000E-01  1.0918774498261E+00 -2.6666351853929E-01
    47  4.6000000000000E-01  1.1063573817904E+00 -2.6880321693711E-01
    48  4.7000000000000E-01  1.1201116796549E+00 -2.7020375641545E-01
    49  4.8000000000000E-01  1.1331249488437E+00 -2.7083087285368E-01
    50  4.9000000000000E-01  1.1453827770133E+00 -2.7065279582876E-01
    51  5.0000000000000E-01  1.1568717917774E+00 -2.6964044268336E-01
    52  5.1000000000000E-01  1.1675797141678E+00 -2.6776759644295E-01
    53  5.2000000000000E-01  1.1774954075073E+00 -2.6501106639625E-01
    54  5.3000000000000E-01  1.1866089214034E+00 -2.6135083027169E-01
    55  5.4000000000000E-01  1.1949115306016E+00 -2.5677015706764E-01
    56  5.5000000000000E-01  1.2023957684720E+00 -2.5125570972638E-01
    57  5.6000000000000E-01  1.2090554549352E+00 -2.4479762697972E-01
    58  5.7000000000000E-01  1.2148857186729E+00 -2.3738958383656E-01
    59  5.8000000000000E-01  1.2198830135035E+00 -2.2902883032942E-01
    60  5.9000000000000E-01  1.2240451288422E+00 -2.1971620828606E-01
    61  6.0000000000000E-01  1.2273711942031E+00 -2.0945614604376E-01
    62  6.1000000000000E-01  1.2298616777402E+00 -1.9825663117541E-01
    63  6.2000000000000E-01  1.2315183788624E+00 -1.8612916144859E-01
    64  6.3000000000000E-01  1.2323444149969E+00 -1.7308867438911E-01
    65  6.4000000000000E-01  1.2323442026129E+00 -1.5915345596824E-01
    66  6.5000000000000E-01  1.2315234326555E+00 -1.4434502907818E-01
    67  6.6000000000000E-01  1.2298890405748E+00 -1.2868802259993E-01
    68  6.7000000000000E-01  1.2274491711712E+00 -1.1221002200298E-01
    69  6.8000000000000E-01  1.2242131385115E+00 -9.4941402545207E-02
    70  6.9000000000000E-01  1.2201913812004E+00 -7.6915146261882E-02
    71  7.0000000000000E-01  1.2153954133240E+00 -5.8166644047116E-02
    72  7.1000000000000E-01  1.2098377714078E+00 -3.8733484234604E-02
    73  7.2000000000000E-01  1.2035319577564E+00 -1.8655229179821E-02
    74  7.3000000000000E-01  1.1964923805675E+00  2.0268185697324E-03
    75  7.4000000000000E-01  1.1887342912275E+00  2.3269858856468E-02
    76  7.5000000000000E-01  1.1802737192195E+00  4.5029843524527E-02
    77  7.6000000000000E-01  1.1711274050821E+00  6.7261731289708E-02
    78  7.7000000000000E-01  1.1613127318724E+00  8.9919746057486E-02
    79  7.8000000000000E-01  1.1508476555931E+00  1.1295763685461E-01
    80  7.9000000000000E-01  1.1397506350475E+00  1.3632893752723E-01
    81  8.0000000000000E-01  1.1280405615881E+00  1.5998722435974E-01
    82  8.1000000000000E-01  1.1157366892221E+00  1.8388636978216E-01
    83  8.2000000000000E-01  1.1028585655313E+00  2.0798079036120E-01
    84  8.3000000000000E-01  1.0894259638574E+00  2.3222568730972E-01
    85  8.4000000000000E-01  1.0754588171876E+00  2.5657727780211E-01
    86  8.5000000000000E-01  1.0609771541658E+00  2.8099301544763E-01
    87  8.6000000000000E-01  1.0460010376319E+00  3.0543179835094E-01
    88  8.7000000000000E-01  1.0305505060747E+00  3.2985416327702E-01
    89  8.8000000000000E-01  1.0146455183571E+00  3.5422246453692E-01
    90  8.9000000000000E-01  9.9830590204866E-01  3.7850103632033E-01
    91  9.0000000000000E-01  9.8155130567006E-01  4.0265633731944E-01
    92  9.1000000000000E-01  9.6440115512421E-01  4.2665707661679E-01
    93  9.2000000000000E-01  9.4687461455536E-01  4.5047431994474E-01
    94  9.3000000000000E-01  9.2899055184303E-01  4.7408157556720E-01
    95  9.4000000000000E-01  9.1076750890113E-01  4.9745485918226E-01
    96  9.5000000000000E-01  8.9222367691541E-01  5.2057273739816E-01
    97  9.6000000000000E-01  8.7337687661346E-01  5.4341634949226E-01
    98  9.7000000000000E-01  8.5424454362224E-01  5.6596940732309E-01
    99  9.8000000000000E-01  8.3484371892840E-01  5.8821817342715E-01
   100  9.9000000000000E-01  8.1519104441633E-01  6.1015141749517E-01
   101  1.0000000000000E+00  7.9530276341910E-01  6.3176035158426E-01
   102  1.0100000000000E+00  7.7519472617773E-01  6.5303854458260E-01
   103  1.0200000000000E+00  7.5488240006542E-01  6.7398181660135E-01
   104  1.0300000000000E+00  7.3438088439506E-01  6.9458811412135E-01
   105  1.0400000000000E+00  7.1370492959181E-01  7.1485736687122E-01
   106  1.0500000000000E+00  6.9286896047706E-01  7.3479132755535E-01
   107  1.0600000000000E+00  6.7188710337649E-01  7.5439339568601E-01
   108  1.0700000000000E+00  6.5077321673332E-01  7.7366842690007E-01
   109  1.0800000000000E+00  6.2954092487867E-01  7.9262252925944E-01
   110  1.0900000000000E+00  6.0820365458372E-01  8.1126284814147E-01
   111  1.1000000000000E+00  5.8677467399437E-01  8.2959734142310E-01
   112  1.1100000000000E+00  5.6526713352762E-01  8.4763454674754E-01
   113  1.1200000000000E+00  5.4369410829054E-01  8.6538334273547E-01
   114  1.1300000000000E+00  5.2206864156743E-01  8.8285270606312E-01
   115  1.1400000000000E+00  5.0040378890919E-01  9.0005146637577E-01
   116  1.1500000000000E+00  4.7871266234995E-01  9.1698806103907E-01
   117  1.1600000000000E+00  4.5700847427167E-01  9.3367029174832E-01
   118  1.1700000000000E+00  4.3530458043560E-01  9.5010508502110E-01
   119  1.1800000000000E+00  4.1361452170184E-01  9.6629825858772E-01
   120  1.1900000000000E+00  3.9195206396410E-01  9.8225429566972E-01
   121  1.2000000000000E+00  3.7033123583631E-01  9.9797612909682E-01
   122  1.2100000000000E+00  3.4876636364031E-01  1.0134649371596E+00
   123  1.2200000000000E+00  3.2727210326090E-01  1.0287199530268E+00
   124  1.2300000000000E+00  3.0586346845395E-01  1.0437382894749E+00
   125  1.2400000000000E+00  2.8455585521666E-01  1.0585147805829E+00
   126  1.2500000000000E+00  2.6336506185551E-01  1.0730418419376E+00
   127  1.2600000000000E+00  2.4230730441641E-01  1.0873093507741E+00
   128  1.2700000000000E+00  2.2139922717409E-01  1.1013045473478E+00
   129  1.2800000000000E+00  2.0065790791237E-01  1.1150119586888E+00
   130  1.2900000000000E+00  1.8010085776387E-01  1.1284133457421E+00
   131  1.3000000000000E+00  1.5974601541739E-01  1.1414876747357E+00
   132  1.3100000000000E+00  1.3961173554196E-01  1.1542111134500E+00
   133  1.3200000000000E+00  1.1971677131962E-01  1.1665570528901E+00
   134  1.3300000000000E+00  1.0008025102270E-01  1.1784961546826E+00
   135  1.3400000000000E+00  8.0721648616942E-02  1.1899964243336E+00
   136  1.3500000000000E+00  6.1660748417158E-02  1.2010233103010E+00
   137  1.3600000000000E+00  4.2917603868457E-02  1.2115398286423E+00
   138  1.3700000000000E+00  2.4512490572516E-02  1.2215067128151E+00
   139  1.3800000000000E+00  6.4658537241423E-03  1.2308825880158E+00
   140  1.3900000000000E+00 -1.1201749831088E-02  1.2396241692597E+00
   141  1.4000000000000E+00 -2.8469714662858E-02  1.2476864822218E+00
   142  1.4100000000000E+00 -4.5317454647128E-02  1.2550231056825E+00
   143  1.4200000000000E+00 -6.1724475341842E-02  1.2615864342502E+00
   144  1.4300000000000E+00 -7.7670450467017E-02  1.2673279598696E+00
   145  1.4400000000000E+00 -9.3135302071166E-02  1.2721985704689E+00
   146  1.4500000000000E+00 -1.0809928393071E-01  1.2761488639559E+00
   147  1.4600000000000E+00 -1.2254306769632E-01  1.2791294756351E+00
   148  1.4700000000000E+00 -1.3644783127042E-01  1.2810914169969E+00
   149  1.4800000000000E+00 -1.4979534887380E-01  1.2819864237194E+00
   150  1.4900000000000E+00 -1.6256808223586E-01  1.2817673106280E+00
   151  1.5000000000000E+00 -1.7474927232386E-01  1.2803883312714E+00
   152  1.5100000000000E+00 -1.8632303101064E-01  1.2778055397119E+00
   153  1.5200000000000E+00 -1.9727443206857E-01  1.2739771520696E+00
   154  1.5300000000000E+00 -2.0758960086961E-01  1.2688639053300E+00
   155  1.5400000000000E+00 -2.1725580216816E-01  1.2624294109028E+00
   156  1.5500000000000E+00 -2.2626152534332E-01  1.2546405004178E+00
   157  1.5600000000000E+00 -2.3459656648280E-01  1.2454675612594E+00
   158  1.5700000000000E+00 -2.4225210669922E-01  1.2348848593745E+00
   159  1.5800000000000E+00 -2.4922078608325E-01  1.2228708469330E+00
   160  1.5900000000000E+00 -2.5549677271549E-01  1.2094084524922E+00
   161  1.6000000000000E+00 -2.6107582618061E-01  1.1944853513931E+00
   162  1.6100000000000E+00 -2.6595535505322E-01  1.1780942142185E+00
   163  1.6200000000000E+00 -2.7013446785405E-01  1.1602329312554E+00
   164  1.6300000000000E+00 -2.7361401700891E-01  1.1409048110335E+00
   165  1.6400000000000E+00 -2.7639663537931E-01  1.1201187511545E+00
   166  1.6500000000000E+00 -2.7848676497392E-01  1.0978893797850E+00
   167  1.6600000000000E+00 -2.7989067749357E-01  1.0742371663525E+00
   168  1.6700000000000E+00 -2.8061648640817E-01  1.0491885001675E+00
   169  1.6800000000000E+00 -2.8067415031297E-01  1.0227757358830E+00
   170  1.6900000000000E+00 -2.8007546736242E-01  9.9503720490623E-01
   171  1.7000000000000E+00 -2.7883406063261E-01  9.6601719208113E-01
   172  1.7100000000000E+00 -2.7696535431803E-01  9.3576587717999E-01
   173  1.7200000000000E+00 -2.7448654072385E-01  9.0433924095874E-01
   174  1.7300000000000E+00 -2.7141653807195E-01  8.7179893575644E-01
   175  1.7400000000000E+00 -2.6777593919574E-01  8.3821212084543E-01
   176  1.7500000000000E+00 -2.6358695125655E-01  8.0365126296538E-01
   177  1.7600000000000E+00 -2.5887332667137E-01  7.6819390270216E-01
   178  1.7700000000000E+00 -2.5366028549841E-01  7.3192238759663E-01
   179  1.7800000000000E+00 -2.4797442958250E-01  6.9492357308901E-01
   180  1.7900000000000E+00 -2.4184364881686E-01  6.5728849262226E-01
   181  1.8000000000000E+00 -2.3529701993035E-01  6.1911199843602E-01
   182  1.8100000000000E+00 -2.2836469825967E-01  5.8049237478519E-01
   183  1.8200000000000E+00 -2.2107780301470E-01  5.4153092550961E-01
   184  1.8300000000000E+00 -2.1346829659003E-01  5.0233153806322E-01
   185  1.8400000000000E+00 -2.0556885851855E-01  4.6300022628092E-01
   186  1.8500000000000E+00 -1.9741275470202E-01  4.2364465431863E-01
   187  1.8600000000000E+00 -1.8903370258868E-01  3.8437364434461E-01
   188  1.8700000000000E+00 -1.8046573299993E-01  3.4529667068767E-01
   189  1.8800000000000E+00 -1.7174304933533E-01  3.0652334325947E-01
   190  1.8900000000000E+00 -1.6289988490818E-01  2.6816288316259E-01
   191  1.9000000000000E+00 -1.5397035918292E-01  2.3032359347257E-01
   192  1.9100000000000E+00 -1.4498833369906E-01  1.9311232824042E-01
   193  1.9200000000000E+00 -1.3598726847608E-01  1.5663396280275E-01
   194  1.9300000000000E+00 -1.2700007969740E-01  1.2099086850557E-01
   195  1.9400000000000E+00 -1.1805899947163E-01  8.6282394949993E-02
   196  1.9500000000000E+00 -1.0919543846290E-01  5.2604362848930E-02
   197  1.9600000000000E+00 -1.0043985217229E-01  2.0048570545949E-02
   198  1.9700000000000E+00 -9.1821611636186E-02 -1.1297682810836E-02
   199  1.9800000000000E+00 -8.3368879287527E-02 -4.1352054522854E-02
   200  1.9900000000000E+00 -7.5108490701014E-02 -7.0037593200912E-02
   201  2.0000000000000E+00 -6.7065842912801E-02 -9.7283148525331E-02
   202  2.0100000000000E+00 -5.9264789971825E-02 -1.2302375332955E-01
   203  2.0200000000000E+00 -5.1727546341187E-02 -1.4720097557985E-01
   204  2.0300000000000E+00 -4.4474598725522E-02 -1.6976323798824E-01
   205  2.0400000000000E+00 -3.7524626853148E-02 -1.9066610317850E-01
   206  2.0500000000000E+00 -3.0894433695052E-02 -2.0987252250674E-01
   207  2.0600000000000E+00 -2.4598885545264E-02 -2.2735304686175E-01
   208  2.0700000000000E+00 -1.8650862334618E-02 -2.4308599797486E-01
   209  2.0800000000000E+00 -1.3061218490478E-02 -2.5705759900106E-01
   210  2.0900000000000E+00 -7.8387545924702E-03 -2.6926206337683E-01
   211  2.1000000000000E+00 -2.9902000163023E-03 -2.7970164118670E-01
   212  2.1100000000000E+00  1.4797933108729E-03 -2.8838662253882E-01
   213  2.1200000000000E+00  5.5686459832613E-03 -2.9533529769666E-01
   214  2.1300000000000E+00  9.2758350217314E-03 -3.0057387396710E-01
   215  2.1400000000000E+00  1.2602866685462E-02 -3.0413634961712E-01
   216  2.1500000000000E+00  1.5553238321941E-02 -3.0606434531935E-01
   217  2.1600000000000E+00  1.8132389460794E-02 -3.0640689391445E-01
   218  2.1700000000000E+00  2.0347642416197E-02 -3.0522018951093E-01
   219  2.1800000000000E+00  2.2208132726251E-02 -3.0256729719240E-01
   220  2.1900000000000E+00  2.3724729819303E-02 -2.9851782484414E-01
   221  2.2000000000000E+00  2.4909948350593E-02 -2.9314755882025E-01
   222  2.2100000000000E+00  2.5777850717741E-02 -2.8653806542879E-01
   223  2.2200000000000E+00  2.6343941308078E-02 -2.7877626038650E-01
   224  2.2300000000000E+00  2.6625053087363E-02 -2.6995394861763E-01
   225  2.2400000000000E+00  2.6639227174611E-02 -2.6016733690903E-01
   226  2.2500000000000E+00  2.6405586104373E-02 -2.4951652215668E-01
   227  2.2600000000000E+00  2.5944201504364E-02 -2.3810495804324E-01
   228  2.2700000000000E+00  2.5275957026543E-02 -2.2603890355927E-01
   229  2.2800000000000E+00  2.4422407095778E-02 -2.1342685510172E-01
   230  2.2900000000000E+00  2.3405631990254E-02 -2.0037896364742E-01
   231  2.3000000000000E+00  2.2248090843966E-02 -1.8700644443143E-01
   232  2.3100000000000E+00  2.0972482133020E-02 -1.7342103444228E-01
   233  2.3200000000000E+00  1.9601521736008E-02 -1.5973396381888E-01
   234  2.3300000000000E+00  1.8157709318083E-02 -1.4605486591002E-01
   235  2.3400000000000E+00  1.6663117965670E-02 -1.3249081931801E-01
   236  2.3500000000000E+00  1.5139223604134E-02 -1.1914571062114E-01
   237  2.3600000000000E+00  1.3606861969876E-02 -1.0612004638920E-01
   238  2.3700000000000E+00  1.2085954650948E-02 -9.3509905731872E-02
   239  2.3800000000000E+00  1.0595332815808E-02 -8.1406264794801E-02
   240  2.3900000000000E+00  9.1503634007709E-03 -6.9886077969135E-02
   241  2.4000000000000E+00  7.7648553622822E-03 -5.9019380942641E-02
   242  2.4100000000000E+00  6.4555840096117E-03 -4.8886200540931E-02
   243  2.4200000000000E+00  5.2379653075395E-03 -3.9560396681802E-02
   244  2.4300000000000E+00  4.1254203237700E-03 -3.1107273433046E-02
   245  2.4400000000000E+00  3.1296918823833E-03 -2.3584739967538E-02
   246  2.4500000000000E+00  2.2606551208676E-03 -1.7042589626099E-02
   247  2.4600000000000E+00  1.5262664740665E-03 -1.1522296074618E-02
   248  2.4700000000000E+00  9.3285884582680E-04 -7.0595374554108E-03
   249  2.4800000000000E+00  4.8186616644940E-04 -3.6589510228901E-03
   250  2.4900000000000E+00  1.8012327642976E-04 -1.3739475475609E-03
   251  2.5000000000000E+00  3.2115108855733E-05 -2.4653850508874E-04
   252  2.5100000000000E+00 -7.3654980562406E-06  5.6559471650514E-05
   253  2.5200000000000E+00 -9.4610659448112E-07  7.2935567939159E-06
   254  2.5300  0. -0.
   255  2.5400 -0.  0.
   256  2.5500 -0.  0.
   257  2.5600  0. -0.
   258  2.5700  0.  0.
   259  2.5800  0.  0.
   260  2.5900  0.  0.
   261  2.6000  0.  0.
   262  2.6100  0.  0.
   263  2.6200  0.  0.
   264  2.6300  0.  0.
   265  2.6400  0.  0.
   266  2.6500  0.  0.
   267  2.6600  0.  0.
   268  2.6700  0.  0.
   269  2.6800  0.  0.
   270  2.6900  0.  0.
   271  2.7000  0.  0.
   272  2.7100  0.  0.
   273  2.7200  0.  0.
   274  2.7300  0.  0.
   275  2.7400  0.  0.
   276  2.7500  0.  0.
   277  2.7600  0.  0.
   278  2.7700  0.  0.
   279  2.7800  0.  0.
   280  2.7900  0.  0.
   281  2.8000  0.  0.
   282  2.8100  0.  0.
   283  2.8200  0.  0.
   284  2.8300  0.  0.
   285  2.8400  0.  0.
   286  2.8500  0.  0.
   287  2.8600  0.  0.
   288  2.8700  0.  0.
   289  2.8800  0.  0.
   290  2.8900  0.  0.
   291  2.9000  0.  0.
   292  2.9100  0.  0.
   293  2.9200  0.  0.
   294  2.9300  0.  0.
   295  2.9400  0.  0.
   296  2.9500  0.  0.
   297  2.9600  0.  0.
   298  2.9700  0.  0.
   299  2.9800  0.  0.
   300  2.9900  0.  0.
   301  3.0000  0.  0.
   302  3.0100  0.  0.
   303  3.0200  0.  0.
   304  3.0300  0.  0.
   305  3.0400  0.  0.
   306  3.0500  0.  0.
   307  3.0600  0.  0.
   308  3.0700  0.  0.
   309  3.0800  0.  0.
   310  3.0900  0.  0.
   311  3.1000  0.  0.
   312  3.1100  0.  0.
   313  3.1200  0.  0.
   314  3.1300  0.  0.
   315  3.1400  0.  0.
   316  3.1500  0.  0.
   317  3.1600  0.  0.
   318  3.1700  0.  0.
   319  3.1800  0.  0.
   320  3.1900  0.  0.
   321  3.2000  0.  0.
   322  3.2100  0.  0.
   323  3.2200  0.  0.
   324  3.2300  0.  0.
   325  3.2400  0.  0.
   326  3.2500  0.  0.
   327  3.2600  0.  0.
   328  3.2700  0.  0.
   329  3.2800  0.  0.
   330  3.2900  0.  0.
   331  3.3000  0.  0.
   332  3.3100  0.  0.
   333  3.3200  0.  0.
   334  3.3300  0.  0.
   335  3.3400  0.  0.
   336  3.3500  0.  0.
   337  3.3600  0.  0.
   338  3.3700  0.  0.
   339  3.3800  0.  0.
   340  3.3900  0.  0.
   341  3.4000  0.  0.
   342  3.4100  0.  0.
   343  3.4200  0.  0.
   344  3.4300  0.  0.
   345  3.4400  0.  0.
   346  3.4500  0.  0.
   347  3.4600  0.  0.
   348  3.4700  0.  0.
   349  3.4800  0.  0.
   350  3.4900  0.  0.
   351  3.5000  0.  0.
   352  3.5100  0.  0.
   353  3.5200  0.  0.
   354  3.5300  0.  0.
   355  3.5400  0.  0.
   356  3.5500  0.  0.
   357  3.5600  0.  0.
   358  3.5700  0.  0.
   359  3.5800  0.  0.
   360  3.5900  0.  0.
   361  3.6000  0.  0.
   362  3.6100  0.  0.
   363  3.6200  0.  0.
   364  3.6300  0.  0.
   365  3.6400  0.  0.
   366  3.6500  0.  0.
   367  3.6600  0.  0.
   368  3.6700  0.  0.
   369  3.6800  0.  0.
   370  3.6900  0.  0.
   371  3.7000  0.  0.
   372  3.7100  0.  0.
   373  3.7200  0.  0.
   374  3.7300  0.  0.
   375  3.7400  0.  0.
   376  3.7500  0.  0.
   377  3.7600  0.  0.
   378  3.7700  0.  0.
   379  3.7800  0.  0.
   380  3.7900  0.  0.
   381  3.8000  0.  0.
   382  3.8100  0.  0.
   383  3.8200  0.  0.
   384  3.8300  0.  0.
   385  3.8400  0.  0.
   386  3.8500  0.  0.
   387  3.8600  0.  0.
   388  3.8700  0.  0.
   389  3.8800  0.  0.
   390  3.8900  0.  0.
   391  3.9000  0.  0.
   392  3.9100  0.  0.
   393  3.9200  0.  0.
   394  3.9300  0.  0.
   395  3.9400  0.  0.
   396  3.9500  0.  0.
   397  3.9600  0.  0.
   398  3.9700  0.  0.
   399  3.9800  0.  0.
   400  3.9900  0.  0.
   401  4.0000  0.  0.
   402  4.0100  0.  0.
   403  4.0200  0.  0.
   404  4.0300  0.  0.
   405  4.0400  0.  0.
   406  4.0500  0.  0.
   407  4.0600  0.  0.
   408  4.0700  0.  0.
   409  4.0800  0.  0.
   410  4.0900  0.  0.
   411  4.1000  0.  0.
   412  4.1100  0.  0.
   413  4.1200  0.  0.
   414  4.1300  0.  0.
   415  4.1400  0.  0.
   416  4.1500  0.  0.
   417  4.1600  0.  0.
   418  4.1700  0.  0.
   419  4.1800  0.  0.
   420  4.1900  0.  0.
   421  4.2000  0.  0.
   422  4.2100  0.  0.
   423  4.2200  0.  0.
   424  4.2300  0.  0.
   425  4.2400  0.  0.
   426  4.2500  0.  0.
   427  4.2600  0.  0.
   428  4.2700  0.  0.
   429  4.2800  0.  0.
   430  4.2900  0.  0.
   431  4.3000  0.  0.
   432  4.3100  0.  0.
   433  4.3200  0.  0.
   434  4.3300  0.  0.
   435  4.3400  0.  0.
   436  4.3500  0.  0.
   437  4.3600  0.  0.
   438  4.3700  0.  0.
   439  4.3800  0.  0.
   440  4.3900  0.  0.
   441  4.4000  0.  0.
   442  4.4100  0.  0.
   443  4.4200  0.  0.
   444  4.4300  0.  0.
   445  4.4400  0.  0.
   446  4.4500  0.  0.
   447  4.4600  0.  0.
   448  4.4700  0.  0.
   449  4.4800  0.  0.
   450  4.4900  0.  0.
   451  4.5000  0.  0.
   452  4.5100  0.  0.
   453  4.5200  0.  0.
   454  4.5300  0.  0.
   455  4.5400  0.  0.
   456  4.5500  0.  0.
   457  4.5600  0.  0.
   458  4.5700  0.  0.
   459  4.5800  0.  0.
   460  4.5900  0.  0.
   461  4.6000  0.  0.
   462  4.6100  0.  0.
   463  4.6200  0.  0.
   464  4.6300  0.  0.
   465  4.6400  0.  0.
   466  4.6500  0.  0.
   467  4.6600  0.  0.
   468  4.6700  0.  0.
   469  4.6800  0.  0.
   470  4.6900  0.  0.
   471  4.7000  0.  0.
   472  4.7100  0.  0.
   473  4.7200  0.  0.
   474  4.7300  0.  0.
   475  4.7400  0.  0.
   476  4.7500  0.  0.
   477  4.7600  0.  0.
   478  4.7700  0.  0.
   479  4.7800  0.  0.
   480  4.7900  0.  0.
   481  4.8000  0.  0.
   482  4.8100  0.  0.
   483  4.8200  0.  0.
   484  4.8300  0.  0.
   485  4.8400  0.  0.
   486  4.8500  0.  0.
   487  4.8600  0.  0.
   488  4.8700  0.  0.
   489  4.8800  0.  0.
   490  4.8900  0.  0.
   491  4.9000  0.  0.
   492  4.9100  0.  0.
   493  4.9200  0.  0.
   494  4.9300  0.  0.
   495  4.9400  0.  0.
   496  4.9500  0.  0.
   497  4.9600  0.  0.
   498  4.9700  0.  0.
   499  4.9800  0.  0.
   500  4.9900  0.  0.
   501  5.0000  0.  0.
   502  5.0100  0.  0.
   503  5.0200  0.  0.
   504  5.0300  0.  0.
   505  5.0400  0.  0.
   506  5.0500  0.  0.
   507  5.0600  0.  0.
   508  5.0700  0.  0.
   509  5.0800  0.  0.
   510  5.0900  0.  0.
   511  5.1000  0.  0.
   512  5.1100  0.  0.
   513  5.1200  0.  0.
   514  5.1300  0.  0.
   515  5.1400  0.  0.
   516  5.1500  0.  0.
   517  5.1600  0.  0.
   518  5.1700  0.  0.
   519  5.1800  0.  0.
   520  5.1900  0.  0.
   521  5.2000  0.  0.
   522  5.2100  0.  0.
   523  5.2200  0.  0.
   524  5.2300  0.  0.
   525  5.2400  0.  0.
   526  5.2500  0.  0.
   527  5.2600  0.  0.
   528  5.2700  0.  0.
   529  5.2800  0.  0.
   530  5.2900  0.  0.
   531  5.3000  0.  0.
   532  5.3100  0.  0.
   533  5.3200  0.  0.
   534  5.3300  0.  0.
   535  5.3400  0.  0.
   536  5.3500  0.  0.
   537  5.3600  0.  0.
   538  5.3700  0.  0.
   539  5.3800  0.  0.
   540  5.3900  0.  0.
   541  5.4000  0.  0.
   542  5.4100  0.  0.
   543  5.4200  0.  0.
   544  5.4300  0.  0.
   545  5.4400  0.  0.
   546  5.4500  0.  0.
   547  5.4600  0.  0.
   548  5.4700  0.  0.
   549  5.4800  0.  0.
   550  5.4900  0.  0.
   551  5.5000  0.  0.
   552  5.5100  0.  0.
   553  5.5200  0.  0.
   554  5.5300  0.  0.
   555  5.5400  0.  0.
   556  5.5500  0.  0.
   557  5.5600  0.  0.
   558  5.5700  0.  0.
   559  5.5800  0.  0.
   560  5.5900  0.  0.
   561  5.6000  0.  0.
   562  5.6100  0.  0.
   563  5.6200  0.  0.
   564  5.6300  0.  0.
   565  5.6400  0.  0.
   566  5.6500  0.  0.
   567  5.6600  0.  0.
   568  5.6700  0.  0.
   569  5.6800  0.  0.
   570  5.6900  0.  0.
   571  5.7000  0.  0.
   572  5.7100  0.  0.
   573  5.7200  0.  0.
   574  5.7300  0.  0.
   575  5.7400  0.  0.
   576  5.7500  0.  0.
   577  5.7600  0.  0.
   578  5.7700  0.  0.
   579  5.7800  0.  0.
   580  5.7900  0.  0.
   581  5.8000  0.  0.
   582  5.8100  0.  0.
   583  5.8200  0.  0.
   584  5.8300  0.  0.
   585  5.8400  0.  0.
   586  5.8500  0.  0.
   587  5.8600  0.  0.
   588  5.8700  0.  0.
   589  5.8800  0.  0.
   590  5.8900  0.  0.
   591  5.9000  0.  0.
   592  5.9100  0.  0.
   593  5.9200  0.  0.
   594  5.9300  0.  0.
   595  5.9400  0.  0.
   596  5.9500  0.  0.
   597  5.9600  0.  0.
   598  5.9700  0.  0.
   599  5.9800  0.  0.
   600  5.9900  0.  0.
   1                         3.1220779073828E+00  3.9561992374100E-01
     1  0.0000000000000E+00  3.8578355787688E-11 -9.1100998272919E-11
     2  1.0000000000000E-02  4.8814854544329E-04 -3.2517098739879E-04
     3  2.0000000000000E-02  1.9515483978689E-03 -1.2991063449177E-03
     4  3.0000000000000E-02  4.3870660657751E-03 -2.9170815360860E-03
     5  4.0000000000000E-02  7.7894919104984E-03 -5.1712498775818E-03
     6  5.0000000000000E-02  1.2151559346444E-02 -8.0506836887569E-03
     7  6.0000000000000E-02  1.7463971580740E-02 -1.1541431568559E-02
     8  7.0000000000000E-02  2.3715435752627E-02 -1.5626591469814E-02
     9  8.0000000000000E-02  3.0892704294319E-02 -2.0286399149729E-02
    10  9.0000000000000E-02  3.8980623297538E-02 -2.5498331486930E-02
    11  1.0000000000000E-01  4.7962187633606E-02 -3.1237224069685E-02
    12  1.1000000000000E-01  5.7818602540086E-02 -3.7475402377774E-02
    13  1.2000000000000E-01  6.8529351353699E-02 -4.4182825802183E-02
    14  1.3000000000000E-01  8.0072269037811E-02 -5.1327243672888E-02
    15  1.4000000000000E-01  9.2423621123314E-02 -5.8874362395946E-02
    16  1.5000000000000E-01  1.0555818765445E-01 -6.6788022737166E-02
    17  1.6000000000000E-01  1.1944935170621E-01 -7.5030386231405E-02
    18  1.7000000000000E-01  1.3406919201723E-01 -8.3562129644122E-02
    19  1.8000000000000E-01  1.4938857926264E-01 -9.2342646365707E-02
    20  1.9000000000000E-01  1.6537727547345E-01 -1.0133025357952E-01
    21  2.0000000000000E-01  1.8200403609527E-01 -1.1048240401164E-01
    22  2.1000000000000E-01  1.9923671416737E-01 -1.1975590104446E-01
    23  2.2000000000000E-01  2.1704236609434E-01 -1.2910711595750E-01
    24  2.3000000000000E-01  2.3538735847743E-01 -1.3849220604707E-01
    25  2.4000000000000E-01  2.5423747546982E-01 -1.4786733237231E-01
    26  2.5000000000000E-01  2.7355802612068E-01 -1.5718887587808E-01
    27  2.6000000000000E-01  2.9331395117648E-01 -1.6641365065564E-01
    28  2.7000000000000E-01  3.1346992881460E-01 -1.7549911311975E-01
    29  2.8000000000000E-01  3.3399047879373E-01 -1.8440356590558E-01
    30  2.9000000000000E-01  3.5484006451843E-01 -1.9308635532101E-01
    31  3.0000000000000E-01  3.7598319253020E-01 -2.0150806122843E-01
    32  3.1000000000000E-01  3.9738450895591E-01 -2.0963067827612E-01
    33  3.2000000000000E-01  4.1900889246521E-01 -2.1741778745068E-01
    34  3.3000000000000E-01  4.4082154331181E-01 -2.2483471698069E-01
    35  3.4000000000000E-01  4.6278806805973E-01 -2.3184869168526E-01
    36  3.5000000000000E-01  4.8487455962336E-01 -2.3842896993075E-01
    37  3.6000000000000E-01  5.0704767228066E-01 -2.4454696743329E-01
    38  3.7000000000000E-01  5.2927469135104E-01 -2.5017636722400E-01
    39  3.8000000000000E-01  5.5152359726317E-01 -2.5529321517685E-01
    40  3.9000000000000E-01  5.7376312377388E-01 -2.5987600058641E-01
    41  4.0000000000000E-01  5.9596281013576E-01 -2.6390572137275E-01
    42  4.1000000000000E-01  6.1809304704941E-01 -2.6736593358399E-01
    43  4.2000000000000E-01  6.4012511627517E-01 -2.7024278496173E-01
    44  4.3000000000000E-01  6.6203122381855E-01 -2.7252503243175E-01
    45  4.4000000000000E-01  6.8378452664404E-01 -2.7420404347994E-01
    46  4.5000000000000E-01  7.0535915291211E-01 -2.7527378147159E-01
    47  4.6000000000000E-01  7.2673021577446E-01 -2.7573077507073E-01
    48  4.7000000000000E-01  7.4787382080280E-01 -2.7557407201336E-01
    49  4.8000000000000E-01  7.6876706716597E-01 -2.7480517758483E-01
    50  4.9000000000000E-01  7.8938804270897E-01 -2.7342797824615E-01
    51  5.0000000000000E-01  8.0971581312550E-01 -2.7144865094602E-01
    52  5.1000000000000E-01  8.2973040545228E-01 -2.6887555874436E-01
    53  5.2000000000000E-01  8.4941278614862E-01 -2.6571913345920E-01
    54  5.3000000000000E-01  8.6874483405871E-01 -2.6199174612989E-01