Cs    ONCVPSP-4.0.1  r_core=   2.34531   2.33133   2.19595   2.50483
     55.0000      9.0000      210704    zatom,zion,pspd
     8      11   3     4   600     0    pspcod,pspxc,lmax,lloc,mmax,r2well
  5.99000000  5.00000000  0.00000000    rchrg fchrg qchrg
     2     2     2     2     0    nproj
     1     1           extension_switch
   0                         5.2709618131397E+00  3.8657994245160E-01
     1  0.0000000000000E+00  1.2870093879513E-11 -5.4434276530735E-11
     2  1.0000000000000E-02  3.0433518984679E-02 -9.1079183714101E-03
     3  2.0000000000000E-02  6.0854238029376E-02 -1.8224425281477E-02
     4  3.0000000000000E-02  9.1249314351486E-02 -2.7357907896345E-02
     5  4.0000000000000E-02  1.2160581990402E-01 -3.6516352366384E-02
     6  5.0000000000000E-02  1.5191069979230E-01 -4.5707147627584E-02
     7  6.0000000000000E-02  1.8215073194011E-01 -5.4936894335362E-02
     8  7.0000000000000E-02  2.1231248840676E-01 -6.4211220577478E-02
     9  8.0000000000000E-02  2.4238229874333E-01 -7.3534605958299E-02
    10  9.0000000000000E-02  2.7234621576086E-01 -8.2910215579620E-02
    11  1.0000000000000E-01  3.0218998406419E-01 -9.2339745363827E-02
    12  1.1000000000000E-01  3.3189901168365E-01 -1.0182328007416E-01
    13  1.2000000000000E-01  3.6145834511280E-01 -1.1135916528497E-01
    14  1.3000000000000E-01  3.9085264803360E-01 -1.2094389444287E-01
    15  1.4000000000000E-01  4.2006618398191E-01 -1.3057201203821E-01
    16  1.5000000000000E-01  4.4908280317534E-01 -1.4023603377736E-01
    17  1.6000000000000E-01  4.7788593369280E-01 -1.4992638450869E-01
    18  1.7000000000000E-01  5.0645857716156E-01 -1.5963135451323E-01
    19  1.8000000000000E-01  5.3478330907196E-01 -1.6933707462215E-01
    20  1.9000000000000E-01  5.6284228380393E-01 -1.7902751047217E-01
    21  2.0000000000000E-01  5.9061724441271E-01 -1.8868447605506E-01
    22  2.1000000000000E-01  6.1808953718360E-01 -1.9828766656170E-01
    23  2.2000000000000E-01  6.4524013092853E-01 -2.0781471036538E-01
    24  2.3000000000000E-01  6.7204964095984E-01 -2.1724123983353E-01
    25  2.4000000000000E-01  6.9849835763993E-01 -2.2654098050483E-01
    26  2.5000000000000E-01  7.2456627936957E-01 -2.3568585801921E-01
    27  2.6000000000000E-01  7.5023314984266E-01 -2.4464612204386E-01
    28  2.7000000000000E-01  7.7547849936152E-01 -2.5339048629969E-01
    29  2.8000000000000E-01  8.0028168997482E-01 -2.6188628366108E-01
    30  2.9000000000000E-01  8.2462196416980E-01 -2.7009963517810E-01
    31  3.0000000000000E-01  8.4847849682252E-01 -2.7799563175595E-01
    32  3.1000000000000E-01  8.7183045008346E-01 -2.8553852712144E-01
    33  3.2000000000000E-01  8.9465703085276E-01 -2.9269194061296E-01
    34  3.3000000000000E-01  9.1693755047813E-01 -2.9941906824781E-01
    35  3.4000000000000E-01  9.3865148629079E-01 -3.0568290045108E-01
    36  3.5000000000000E-01  9.5977854457938E-01 -3.1144644477301E-01
    37  3.6000000000000E-01  9.8029872459007E-01 -3.1667295187827E-01
    38  3.7000000000000E-01  1.0001923831320E+00 -3.2132614306013E-01
    39  3.8000000000000E-01  1.0194402993620E+00 -3.2537043751696E-01
    40  3.9000000000000E-01  1.0380237393192E+00 -3.2877117762620E-01
    41  4.0000000000000E-01  1.0559245197831E+00 -3.3149485046340E-01
    42  4.1000000000000E-01  1.0731250710302E+00 -3.3350930384038E-01
    43  4.2000000000000E-01  1.0896084980747E+00 -3.3478395517673E-01
    44  4.3000000000000E-01  1.1053586399871E+00 -3.3528999157330E-01
    45  4.4000000000000E-01  1.1203601269005E+00 -3.3500055952319E-01
    46  4.5000000000000E-01  1.1345984343287E+00 -3.3389094277622E-01
    47  4.6000000000000E-01  1.1480599344436E+00 -3.3193872696472E-01
    48  4.7000000000000E-01  1.1607319439780E+00 -3.2912394970261E-01
    49  4.8000000000000E-01  1.1726027684474E+00 -3.2542923498370E-01
    50  4.9000000000000E-01  1.1836617424120E+00 -3.2083991082941E-01
    51  5.0000000000000E-01  1.1938992655272E+00 -3.1534410926896E-01
    52  5.1000000000000E-01  1.2033068341650E+00 -3.0893284787598E-01
    53  5.2000000000000E-01  1.2118770684216E+00 -3.0160009223217E-01
    54  5.3000000000000E-01  1.2196037343579E+00 -2.9334279884221E-01
    55  5.4000000000000E-01  1.2264817613601E+00 -2.8416093818067E-01
    56  5.5000000000000E-01  1.2325072545400E+00 -2.7405749771140E-01
    57  5.6000000000000E-01  1.2376775021336E+00 -2.6303846488287E-01
    58  5.7000000000000E-01  1.2419909778941E+00 -2.5111279026353E-01
    59  5.8000000000000E-01  1.2454473385108E+00 -2.3829233114375E-01
    60  5.9000000000000E-01  1.2480474161258E+00 -2.2459177608953E-01
    61  6.0000000000000E-01  1.2497932060514E+00 -2.1002855108883E-01
    62  6.1000000000000E-01  1.2506878498332E+00 -1.9462270808211E-01
    63  6.2000000000000E-01  1.2507356138312E+00 -1.7839679681377E-01
    64  6.3000000000000E-01  1.2499418635296E+00 -1.6137572107829E-01
    65  6.4000000000000E-01  1.2483130338129E+00 -1.4358658056446E-01
    66  6.5000000000000E-01  1.2458565954771E+00 -1.2505849962070E-01
    67  6.6000000000000E-01  1.2425810182708E+00 -1.0582244437339E-01
    68  6.7000000000000E-01  1.2384957307845E+00 -8.5911029728512E-02
    69  6.8000000000000E-01  1.2336110775293E+00 -6.5358317871763E-02
    70  6.9000000000000E-01  1.2279382735643E+00 -4.4199609955412E-02
    71  7.0000000000000E-01  1.2214893570473E+00 -2.2471232718119E-02
    72  7.1000000000000E-01  1.2142771400956E+00 -2.1032182923010E-04
    73  7.2000000000000E-01  1.2063151583556E+00  2.2545396221822E-02
    74  7.3000000000000E-01  1.1976176196826E+00  4.5757821855175E-02
    75  7.4000000000000E-01  1.1881993523361E+00  6.9388697914419E-02
    76  7.5000000000000E-01  1.1780757530969E+00  9.3399821145237E-02
    77  7.6000000000000E-01  1.1672627357045E+00  1.1775324785087E-01
    78  7.7000000000000E-01  1.1557766800090E+00  1.4241149198247E-01
    79  7.8000000000000E-01  1.1436343822192E+00  1.6733771398408E-01
    80  7.9000000000000E-01  1.1308530066141E+00  1.9249589878641E-01
    81  8.0000000000000E-01  1.1174500390688E+00  2.1785102143489E-01
    82  8.1000000000000E-01  1.1034432427246E+00  2.4336919893845E-01
    83  8.2000000000000E-01  1.0888506161100E+00  2.6901782704217E-01
    84  8.3000000000000E-01  1.0736903539935E+00  2.9476570075324E-01
    85  8.4000000000000E-01  1.0579808112213E+00  3.2058311758794E-01
    86  8.5000000000000E-01  1.0417404697611E+00  3.4644196265406E-01
    87  8.6000000000000E-01  1.0249879091410E+00  3.7231577484013E-01
    88  8.7000000000000E-01  1.0077417804404E+00  3.9817979354523E-01
    89  8.8000000000000E-01  9.9002078394964E-01  4.2401098555280E-01
    90  8.9000000000000E-01  9.7184365058190E-01  4.4978805182621E-01
    91  9.0000000000000E-01  9.5322912708205E-01  4.7549141418044E-01
    92  9.1000000000000E-01  9.3419596503774E-01  5.0110318196405E-01
    93  9.2000000000000E-01  9.1476291366078E-01  5.2660709906477E-01
    94  9.3000000000000E-01  8.9494871626764E-01  5.5198847173105E-01
    95  9.4000000000000E-01  8.7477211035043E-01  5.7723407787711E-01
    96  9.5000000000000E-01  8.5425183109183E-01  6.0233205871204E-01
    97  9.6000000000000E-01  8.3340661814196E-01  6.2727179369905E-01
    98  9.7000000000000E-01  8.1225522543982E-01  6.5204376001145E-01
    99  9.8000000000000E-01  7.9081643382924E-01  6.7663937780263E-01
   100  9.9000000000000E-01  7.6910906618806E-01  7.0105084274993E-01
   101  1.0000000000000E+00  7.4715200476051E-01  7.2527094746222E-01
   102  1.0100000000000E+00  7.2496421035646E-01  7.4929289346155E-01
   103  1.0200000000000E+00  7.0256474305785E-01  7.7311009555335E-01
   104  1.0300000000000E+00  6.7997278405209E-01  7.9671598049276E-01
   105  1.0400000000000E+00  6.5720765819509E-01  8.2010378193117E-01
   106  1.0500000000000E+00  6.3428885689272E-01  8.4326633368704E-01
   107  1.0600000000000E+00  6.1123606087912E-01  8.6619586343171E-01
   108  1.0700000000000E+00  5.8806916246406E-01  8.8888378890527E-01
   109  1.0800000000000E+00  5.6480828681823E-01  9.1132051879112E-01
   110  1.0900000000000E+00  5.4147381186677E-01  9.3349526036756E-01
   111  1.1000000000000E+00  5.1808638636610E-01  9.5539583603022E-01
   112  1.1100000000000E+00  4.9466694574785E-01  9.7700851073615E-01
   113  1.1200000000000E+00  4.7123672532636E-01  9.9831783235908E-01
   114  1.1300000000000E+00  4.4781727048280E-01  1.0193064868664E+00
   115  1.1400000000000E+00  4.2443044345865E-01  1.0399551701341E+00
   116  1.1500000000000E+00  4.0109842641567E-01  1.0602424781035E+00
   117  1.1600000000000E+00  3.7784372044593E-01  1.0801448168552E+00
   118  1.1700000000000E+00  3.5468914024636E-01  1.0996363340356E+00
   119  1.1800000000000E+00  3.3165780420558E-01  1.1186888729122E+00
   120  1.1900000000000E+00  3.0877311968683E-01  1.1372719501675E+00
   121  1.2000000000000E+00  2.8605876333005E-01  1.1553527583578E+00
   122  1.2100000000000E+00  2.6353865623666E-01  1.1728961937742E+00
   123  1.2200000000000E+00  2.4123693394413E-01  1.1898649102429E+00
   124  1.2300000000000E+00  2.1917791114165E-01  1.2062193991924E+00
   125  1.2400000000000E+00  1.9738604112455E-01  1.2219180961042E+00
   126  1.2500000000000E+00  1.7588587003158E-01  1.2369175132451E+00
   127  1.2600000000000E+00  1.5470198595695E-01  1.2511723983581E+00
   128  1.2700000000000E+00  1.3385896307637E-01  1.2646359187684E+00
   129  1.2800000000000E+00  1.1338130097415E-01  1.2772598701411E+00
   130  1.2900000000000E+00  9.3293359404669E-02  1.2889949089091E+00
   131  1.3000000000000E+00  7.3619288768204E-02  1.2997908071749E+00
   132  1.3100000000000E+00  5.4382956625002E-02  1.3095967286858E+00
   133  1.3200000000000E+00  3.5607870614612E-02  1.3183615242788E+00
   134  1.3300000000000E+00  1.7317098188277E-02  1.3260340450042E+00
   135  1.3400000000000E+00 -4.6681639955860E-04  1.3325634709557E+00
   136  1.3500000000000E+00 -1.7721937359177E-02  1.3378996536712E+00
   137  1.3600000000000E+00 -3.4427024378801E-02  1.3419934698114E+00
   138  1.3700000000000E+00 -5.0561620840161E-02  1.3447971836910E+00
   139  1.3800000000000E+00 -6.6106142667957E-02  1.3462648161145E+00
   140  1.3900000000000E+00 -8.1041967223542E-02  1.3463525168657E+00
   141  1.4000000000000E+00 -9.5351521635697E-02  1.3450189381172E+00
   142  1.4100000000000E+00 -1.0901836994865E-01  1.3422256059628E+00
   143  1.4200000000000E+00 -1.2202729845901E-01  1.3379372872295E+00
   144  1.4300000000000E+00 -1.3436439860961E-01  1.3321223487072E+00
   145  1.4400000000000E+00 -1.4601714680927E-01  1.3247531059284E+00
   146  1.4500000000000E+00 -1.5697448055337E-01  1.3158061586568E+00
   147  1.4600000000000E+00 -1.6722687023061E-01  1.3052627102799E+00
   148  1.4700000000000E+00 -1.7676638601710E-01  1.2931088683707E+00
   149  1.4800000000000E+00 -1.8558675927891E-01  1.2793359237669E+00
   150  1.4900000000000E+00 -1.9368343792930E-01  1.2639406056233E+00
   151  1.5000000000000E+00 -2.0105363521629E-01  1.2469253100224E+00
   152  1.5100000000000E+00 -2.0769637145002E-01  1.2282982998750E+00
   153  1.5200000000000E+00 -2.1361250821761E-01  1.2080738740101E+00
   154  1.5300000000000E+00 -2.1880477467519E-01  1.1862725035389E+00
   155  1.5400000000000E+00 -2.2327778555257E-01  1.1629209337791E+00
   156  1.5500000000000E+00 -2.2703805055497E-01  1.1380522502419E+00
   157  1.5600000000000E+00 -2.3009397489896E-01  1.1117059074197E+00
   158  1.5700000000000E+00 -2.3245585077425E-01  1.0839277193515E+00
   159  1.5800000000000E+00 -2.3413583958072E-01  1.0547698112010E+00
   160  1.5900000000000E+00 -2.3514794484912E-01  1.0242905313472E+00
   161  1.6000000000000E+00 -2.3550797581502E-01  9.9255432375449E-01
   162  1.6100000000000E+00 -2.3523350167727E-01  9.5963156066987E-01
   163  1.6200000000000E+00 -2.3434379663529E-01  9.2559833597238E-01
   164  1.6300000000000E+00 -2.3285977586192E-01  8.9053621978061E-01
   165  1.6400000000000E+00 -2.3080392263171E-01  8.5453197520511E-01
   166  1.6500000000000E+00 -2.2820020688598E-01  8.1767723840860E-01
   167  1.6600000000000E+00 -2.2507399557711E-01  7.8006816340918E-01
   168  1.6700000000000E+00 -2.2145195519342E-01  7.4180503332682E-01
   169  1.6800000000000E+00 -2.1736194692310E-01  7.0299184002842E-01
   170  1.6900000000000E+00 -2.1283291497022E-01  6.6373583437193E-01
   171  1.7000000000000E+00 -2.0789476858733E-01  6.2414704948122E-01
   172  1.7100000000000E+00 -2.0257825843737E-01  5.8433779970010E-01
   173  1.7200000000000E+00 -1.9691484794213E-01  5.4442215807384E-01
   174  1.7300000000000E+00 -1.9093658031479E-01  5.0451541538842E-01
   175  1.7400000000000E+00 -1.8467594200990E-01  4.6473352395953E-01
   176  1.7500000000000E+00 -1.7816572335545E-01  4.2519252950457E-01
   177  1.7600000000000E+00 -1.7143887715767E-01  3.8600799454880E-01
   178  1.7700000000000E+00 -1.6452837609012E-01  3.4729441691238E-01
   179  1.7800000000000E+00 -1.5746706969383E-01  3.0916464689529E-01
   180  1.7900000000000E+00 -1.5028754182538E-01  2.7172930682270E-01
   181  1.8000000000000E+00 -1.4302196939335E-01  2.3509621663350E-01
   182  1.8100000000000E+00 -1.3570198322199E-01  1.9936982918804E-01
   183  1.8200000000000E+00 -1.2835853187320E-01  1.6465067893930E-01
   184  1.8300000000000E+00 -1.2102174924420E-01  1.3103484755220E-01
   185  1.8400000000000E+00 -1.1372082673902E-01  9.8613449972194E-02
   186  1.8500000000000E+00 -1.0648389078651E-01  6.7472144332941E-02
   187  1.8600000000000E+00 -9.9337886447047E-02  3.7690668957870E-02
   188  1.8700000000000E+00 -9.2308467813707E-02  9.3424095511258E-03
   189  1.8800000000000E+00 -8.5419895872364E-02 -1.7506000510251E-02
   190  1.8900000000000E+00 -7.8694944438738E-02 -4.2795044075491E-02
   191  1.9000000000000E+00 -7.2154814738919E-02 -6.6472645831503E-02
   192  1.9100000000000E+00 -6.5819059145527E-02 -8.8494457388370E-02
   193  1.9200000000000E+00 -5.9705514521137E-02 -1.0882409986875E-01
   194  1.9300000000000E+00 -5.3830245558069E-02 -1.2743336230867E-01
   195  1.9400000000000E+00 -4.8207498437515E-02 -1.4430235447036E-01
   196  1.9500000000000E+00 -4.2849665062030E-02 -1.5941961297392E-01
   197  1.9600000000000E+00 -3.7767258044250E-02 -1.7278215997064E-01
   198  1.9700000000000E+00 -3.2968896562061E-02 -1.8439551390315E-01
   199  1.9800000000000E+00 -2.8461303114646E-02 -1.9427365223451E-01
   200  1.9900000000000E+00 -2.4249311143235E-02 -2.0243892634196E-01
   201  2.0000000000000E+00 -2.0335883399554E-02 -2.0892192912987E-01
   202  2.0100000000000E+00 -1.6722140874390E-02 -2.1376131623060E-01
   203  2.0200000000000E+00 -1.3407402023126E-02 -2.1700358199713E-01
   204  2.0300000000000E+00 -1.0389231953079E-02 -2.1870279181178E-01
   205  2.0400000000000E+00 -7.6635011651512E-03 -2.1892027255637E-01
   206  2.0500000000000E+00 -5.2244533779925E-03 -2.1772426337525E-01
   207  2.0600000000000E+00 -3.0647818928238E-03 -2.1518952917322E-01
   208  2.0700000000000E+00 -1.1757138977466E-03 -2.1139693955442E-01
   209  2.0800000000000E+00  4.5289794815378E-04 -2.0643301616767E-01
   210  2.0900000000000E+00  1.8324773652662E-03 -2.0038945166640E-01
   211  2.1000000000000E+00  2.9756205011960E-03 -1.9336260370590E-01
   212  2.1100000000000E+00  3.8959869825166E-03 -1.8545296759569E-01
   213  2.1200000000000E+00  4.6081868183541E-03 -1.7676463140659E-01
   214  2.1300000000000E+00  5.1276640344087E-03 -1.6740471746846E-01
   215  2.1400000000000E+00  5.4705779449122E-03 -1.5748281432178E-01
   216  2.1500000000000E+00  5.6536831315484E-03 -1.4711040405812E-01
   217  2.1600000000000E+00  5.6942087096230E-03 -1.3640028721193E-01
   218  2.1700000000000E+00  5.6097362753454E-03 -1.2546600115822E-01
   219  2.1800000000000E+00  5.4180839218545E-03 -1.1442127094618E-01
   220  2.1900000000000E+00  5.1371965221826E-03 -1.0337949124332E-01
   221  2.2000000000000E+00  4.7848188052300E-03 -9.2452029557864E-02
   222  2.2100000000000E+00  4.3781744118539E-03 -8.1746498605324E-02
   223  2.2200000000000E+00  3.9336709309898E-03 -7.1365347531792E-02
   224  2.2300000000000E+00  3.4666954631093E-03 -6.1405099158893E-02
   225  2.2400000000000E+00  2.9906533465633E-03 -5.1952934003948E-02
   226  2.2500000000000E+00  2.5183291712528E-03 -4.3091069953639E-02
   227  2.2600000000000E+00  2.0624238414190E-03 -3.4898460463087E-02
   228  2.2700000000000E+00  1.6340505612865E-03 -2.7445753069917E-02
   229  2.2800000000000E+00  1.2428432784531E-03 -2.0795519638971E-02
   230  2.2900000000000E+00  8.9685055258960E-04 -1.5001802128800E-02
   231  2.3000000000000E+00  6.0246624315659E-04 -1.0109795015201E-02
   232  2.3100000000000E+00  3.6448328680652E-04 -6.1577169244947E-03
   233  2.3200000000000E+00  1.8510548851721E-04 -3.1593829060989E-03
   234  2.3300000000000E+00  6.6594411954684E-05 -1.1527528221803E-03
   235  2.3400000000000E+00  1.0536985678873E-05 -1.8602391907027E-04
   236  2.3500000000000E+00 -2.6395698497090E-06  4.6909677787737E-05
   237  2.3600000000000E+00  1.4685861171943E-07 -2.5804175842041E-06
   238  2.37  0. -0.
   239  2.38 -0.  0.
   240  2.39  0. -0.
   241  2.40  0. -0.
   242  2.41  0.  0.
   243  2.42  0.  0.
   244  2.43  0.  0.
   245  2.44  0.  0.
   246  2.45  0.  0.
   247  2.46  0.  0.
   248  2.47  0.  0.
   249  2.48  0.  0.
   250  2.49  0.  0.
   251  2.50  0.  0.
   252  2.51  0.  0.
   253  2.52  0.  0.
   254  2.53  0.  0.
   255  2.54  0.  0.
   256  2.55  0.  0.
   257  2.56  0.  0.
   258  2.57  0.  0.
   259  2.58  0.  0.
   260  2.59  0.  0.
   261  2.60  0.  0.
   262  2.61  0.  0.
   263  2.62  0.  0.
   264  2.63  0.  0.
   265  2.64  0.  0.
   266  2.65  0.  0.
   267  2.66  0.  0.
   268  2.67  0.  0.
   269  2.68  0.  0.
   270  2.69  0.  0.
   271  2.70  0.  0.
   272  2.71  0.  0.
   273  2.72  0.  0.
   274  2.73  0.  0.
   275  2.74  0.  0.
   276  2.75  0.  0.
   277  2.76  0.  0.
   278  2.77  0.  0.
   279  2.78  0.  0.
   280  2.79  0.  0.
   281  2.80  0.  0.
   282  2.81  0.  0.
   283  2.82  0.  0.
   284  2.83  0.  0.
   285  2.84  0.  0.
   286  2.85  0.  0.
   287  2.86  0.  0.
   288  2.87  0.  0.
   289  2.88  0.  0.
   290  2.89  0.  0.
   291  2.90  0.  0.
   292  2.91  0.  0.
   293  2.92  0.  0.
   294  2.93  0.  0.
   295  2.94  0.  0.
   296  2.95  0.  0.
   297  2.96  0.  0.
   298  2.97  0.  0.
   299  2.98  0.  0.
   300  2.99  0.  0.
   301  3.00  0.  0.
   302  3.01  0.  0.
   303  3.02  0.  0.
   304  3.03  0.  0.
   305  3.04  0.  0.
   306  3.05  0.  0.
   307  3.06  0.  0.
   308  3.07  0.  0.
   309  3.08  0.  0.
   310  3.09  0.  0.
   311  3.10  0.  0.
   312  3.11  0.  0.
   313  3.12  0.  0.
   314  3.13  0.  0.
   315  3.14  0.  0.
   316  3.15  0.  0.
   317  3.16  0.  0.
   318  3.17  0.  0.
   319  3.18  0.  0.
   320  3.19  0.  0.
   321  3.20  0.  0.
   322  3.21  0.  0.
   323  3.22  0.  0.
   324  3.23  0.  0.
   325  3.24  0.  0.
   326  3.25  0.  0.
   327  3.26  0.  0.
   328  3.27  0.  0.
   329  3.28  0.  0.
   330  3.29  0.  0.
   331  3.30  0.  0.
   332  3.31  0.  0.
   333  3.32  0.  0.
   334  3.33  0.  0.
   335  3.34  0.  0.
   336  3.35  0.  0.
   337  3.36  0.  0.
   338  3.37  0.  0.
   339  3.38  0.  0.
   340  3.39  0.  0.
   341  3.40  0.  0.
   342  3.41  0.  0.
   343  3.42  0.  0.
   344  3.43  0.  0.
   345  3.44  0.  0.
   346  3.45  0.  0.
   347  3.46  0.  0.
   348  3.47  0.  0.
   349  3.48  0.  0.
   350  3.49  0.  0.
   351  3.50  0.  0.
   352  3.51  0.  0.
   353  3.52  0.  0.
   354  3.53  0.  0.
   355  3.54  0.  0.
   356  3.55  0.  0.
   357  3.56  0.  0.
   358  3.57  0.  0.
   359  3.58  0.  0.
   360  3.59  0.  0.
   361  3.60  0.  0.
   362  3.61  0.  0.
   363  3.62  0.  0.
   364  3.63  0.  0.
   365  3.64  0.  0.
   366  3.65  0.  0.
   367  3.66  0.  0.
   368  3.67  0.  0.
   369  3.68  0.  0.
   370  3.69  0.  0.
   371  3.70  0.  0.
   372  3.71  0.  0.
   373  3.72  0.  0.
   374  3.73  0.  0.
   375  3.74  0.  0.
   376  3.75  0.  0.
   377  3.76  0.  0.
   378  3.77  0.  0.
   379  3.78  0.  0.
   380  3.79  0.  0.
   381  3.80  0.  0.
   382  3.81  0.  0.
   383  3.82  0.  0.
   384  3.83  0.  0.
   385  3.84  0.  0.
   386  3.85  0.  0.
   387  3.86  0.  0.
   388  3.87  0.  0.
   389  3.88  0.  0.
   390  3.89  0.  0.
   391  3.90  0.  0.
   392  3.91  0.  0.
   393  3.92  0.  0.
   394  3.93  0.  0.
   395  3.94  0.  0.
   396  3.95  0.  0.
   397  3.96  0.  0.
   398  3.97  0.  0.
   399  3.98  0.  0.
   400  3.99  0.  0.
   401  4.00  0.  0.
   402  4.01  0.  0.
   403  4.02  0.  0.
   404  4.03  0.  0.
   405  4.04  0.  0.
   406  4.05  0.  0.
   407  4.06  0.  0.
   408  4.07  0.  0.
   409  4.08  0.  0.
   410  4.09  0.  0.
   411  4.10  0.  0.
   412  4.11  0.  0.
   413  4.12  0.  0.
   414  4.13  0.  0.
   415  4.14  0.  0.
   416  4.15  0.  0.
   417  4.16  0.  0.
   418  4.17  0.  0.
   419  4.18  0.  0.
   420  4.19  0.  0.
   421  4.20  0.  0.
   422  4.21  0.  0.
   423  4.22  0.  0.
   424  4.23  0.  0.
   425  4.24  0.  0.
   426  4.25  0.  0.
   427  4.26  0.  0.
   428  4.27  0.  0.
   429  4.28  0.  0.
   430  4.29  0.  0.
   431  4.30  0.  0.
   432  4.31  0.  0.
   433  4.32  0.  0.
   434  4.33  0.  0.
   435  4.34  0.  0.
   436  4.35  0.  0.
   437  4.36  0.  0.
   438  4.37  0.  0.
   439  4.38  0.  0.
   440  4.39  0.  0.
   441  4.40  0.  0.
   442  4.41  0.  0.
   443  4.42  0.  0.
   444  4.43  0.  0.
   445  4.44  0.  0.
   446  4.45  0.  0.
   447  4.46  0.  0.
   448  4.47  0.  0.
   449  4.48  0.  0.
   450  4.49  0.  0.
   451  4.50  0.  0.
   452  4.51  0.  0.
   453  4.52  0.  0.
   454  4.53  0.  0.
   455  4.54  0.  0.
   456  4.55  0.  0.
   457  4.56  0.  0.
   458  4.57  0.  0.
   459  4.58  0.  0.
   460  4.59  0.  0.
   461  4.60  0.  0.
   462  4.61  0.  0.
   463  4.62  0.  0.
   464  4.63  0.  0.
   465  4.64  0.  0.
   466  4.65  0.  0.
   467  4.66  0.  0.
   468  4.67  0.  0.
   469  4.68  0.  0.
   470  4.69  0.  0.
   471  4.70  0.  0.
   472  4.71  0.  0.
   473  4.72  0.  0.
   474  4.73  0.  0.
   475  4.74  0.  0.
   476  4.75  0.  0.
   477  4.76  0.  0.
   478  4.77  0.  0.
   479  4.78  0.  0.
   480  4.79  0.  0.
   481  4.80  0.  0.
   482  4.81  0.  0.
   483  4.82  0.  0.
   484  4.83  0.  0.
   485  4.84  0.  0.
   486  4.85  0.  0.
   487  4.86  0.  0.
   488  4.87  0.  0.
   489  4.88  0.  0.
   490  4.89  0.  0.
   491  4.90  0.  0.
   492  4.91  0.  0.
   493  4.92  0.  0.
   494  4.93  0.  0.
   495  4.94  0.  0.
   496  4.95  0.  0.
   497  4.96  0.  0.
   498  4.97  0.  0.
   499  4.98  0.  0.
   500  4.99  0.  0.
   501  5.00  0.  0.
   502  5.01  0.  0.
   503  5.02  0.  0.
   504  5.03  0.  0.
   505  5.04  0.  0.
   506  5.05  0.  0.
   507  5.06  0.  0.
   508  5.07  0.  0.
   509  5.08  0.  0.
   510  5.09  0.  0.
   511  5.10  0.  0.
   512  5.11  0.  0.
   513  5.12  0.  0.
   514  5.13  0.  0.
   515  5.14  0.  0.
   516  5.15  0.  0.
   517  5.16  0.  0.
   518  5.17  0.  0.
   519  5.18  0.  0.
   520  5.19  0.  0.
   521  5.20  0.  0.
   522  5.21  0.  0.
   523  5.22  0.  0.
   524  5.23  0.  0.
   525  5.24  0.  0.
   526  5.25  0.  0.
   527  5.26  0.  0.
   528  5.27  0.  0.
   529  5.28  0.  0.
   530  5.29  0.  0.
   531  5.30  0.  0.
   532  5.31  0.  0.
   533  5.32  0.  0.
   534  5.33  0.  0.
   535  5.34  0.  0.
   536  5.35  0.  0.
   537  5.36  0.  0.
   538  5.37  0.  0.
   539  5.38  0.  0.
   540  5.39  0.  0.
   541  5.40  0.  0.
   542  5.41  0.  0.
   543  5.42  0.  0.
   544  5.43  0.  0.
   545  5.44  0.  0.
   546  5.45  0.  0.
   547  5.46  0.  0.
   548  5.47  0.  0.
   549  5.48  0.  0.
   550  5.49  0.  0.
   551  5.50  0.  0.
   552  5.51  0.  0.
   553  5.52  0.  0.
   554  5.53  0.  0.
   555  5.54  0.  0.
   556  5.55  0.  0.
   557  5.56  0.  0.
   558  5.57  0.  0.
   559  5.58  0.  0.
   560  5.59  0.  0.
   561  5.60  0.  0.
   562  5.61  0.  0.
   563  5.62  0.  0.
   564  5.63  0.  0.
   565  5.64  0.  0.
   566  5.65  0.  0.
   567  5.66  0.  0.
   568  5.67  0.  0.
   569  5.68  0.  0.
   570  5.69  0.  0.
   571  5.70  0.  0.
   572  5.71  0.  0.
   573  5.72  0.  0.
   574  5.73  0.  0.
   575  5.74  0.  0.
   576  5.75  0.  0.
   577  5.76  0.  0.
   578  5.77  0.  0.
   579  5.78  0.  0.
   580  5.79  0.  0.
   581  5.80  0.  0.
   582  5.81  0.  0.
   583  5.82  0.  0.
   584  5.83  0.  0.
   585  5.84  0.  0.
   586  5.85  0.  0.
   587  5.86  0.  0.
   588  5.87  0.  0.
   589  5.88  0.  0.
   590  5.89  0.  0.
   591  5.90  0.  0.
   592  5.91  0.  0.
   593  5.92  0.  0.
   594  5.93  0.  0.
   595  5.94  0.  0.
   596  5.95  0.  0.
   597  5.96  0.  0.
   598  5.97  0.  0.
   599  5.98  0.  0.
   600  5.99  0.  0.
   1                         4.7620018090011E+00  5.4496292398538E-01
     1  0.0000000000000E+00  4.7104660449993E-11 -1.0438342898378E-10
     2  1.0000000000000E-02  6.2410341882886E-04 -3.6184677804005E-04
     3  2.0000000000000E-02  2.4950273035183E-03 -1.4456883600943E-03
     4  3.0000000000000E-02  5.6086172196603E-03 -3.2464372570460E-03
     5  4.0000000000000E-02  9.9579646883875E-03 -5.7556434888791E-03
     6  5.0000000000000E-02  1.5533430467404E-02 -8.9615381448218E-03
     7  6.0000000000000E-02  2.2322676971674E-02 -1.2849093983774E-02
     8  7.0000000000000E-02  3.0310709662315E-02 -1.7400102694231E-02
     9  8.0000000000000E-02  3.9479927185150E-02 -2.2593268328517E-02
    10  9.0000000000000E-02  4.9810179994685E-02 -2.8404316324994E-02
    11  1.0000000000000E-01  6.1278837155283E-02 -3.4806117434648E-02
    12  1.1000000000000E-01  7.3860860969214E-02 -4.1768825775636E-02
    13  1.2000000000000E-01  8.7528889041537E-02 -4.9260030151979E-02
    14  1.3000000000000E-01  1.0225332335439E-01 -5.7244917690725E-02
    15  1.4000000000000E-01  1.1800242588878E-01 -6.5686448776521E-02
    16  1.5000000000000E-01  1.3474242030017E-01 -7.4545542193712E-02
    17  1.6000000000000E-01  1.5243759912588E-01 -8.3781269325105E-02
    18  1.7000000000000E-01  1.7105043597710E-01 -9.3351056202364E-02
    19  1.8000000000000E-01  1.9054170214644E-01 -1.0321089215785E-01
    20  1.9000000000000E-01  2.1087058704427E-01 -1.1331554379026E-01
    21  2.0000000000000E-01  2.3199482186244E-01 -1.2361877292763E-01
    22  2.1000000000000E-01  2.5387080585359E-01 -1.3407355725195E-01
    23  2.2000000000000E-01  2.7645373460776E-01 -1.4463231223811E-01
    24  2.3000000000000E-01  2.9969772970493E-01 -1.5524711305876E-01
    25  2.4000000000000E-01  3.2355596912379E-01 -1.6586991511315E-01
    26  2.5000000000000E-01  3.4798081779162E-01 -1.7645277185494E-01
    27  2.6000000000000E-01  3.7292395766953E-01 -1.8694804861852E-01
    28  2.7000000000000E-01  3.9833651677991E-01 -1.9730863117756E-01
    29  2.8000000000000E-01  4.2416919659919E-01 -2.0748812781169E-01
    30  2.9000000000000E-01  4.5037239725931E-01 -2.1744106370793E-01
    31  3.0000000000000E-01  4.7689634002461E-01 -2.2712306658189E-01
    32  3.1000000000000E-01  5.0369118653747E-01 -2.3649104246975E-01
    33  3.2000000000000E-01  5.3070715435602E-01 -2.4550334071520E-01
    34  3.3000000000000E-01  5.5789462833968E-01 -2.5411990725496E-01
    35  3.4000000000000E-01  5.8520426747373E-01 -2.6230242539238E-01
    36  3.5000000000000E-01  6.1258710676176E-01 -2.7001444333946E-01
    37  3.6000000000000E-01  6.3999465385457E-01 -2.7722148790403E-01
    38  3.7000000000000E-01  6.6737898012592E-01 -2.8389116379834E-01
    39  3.8000000000000E-01  6.9469280594857E-01 -2.8999323814963E-01
    40  3.9000000000000E-01  7.2188957996868E-01 -2.9549970989917E-01
    41  4.0000000000000E-01  7.4892355222188E-01 -3.0038486388505E-01
    42  4.1000000000000E-01  7.7574984098064E-01 -3.0462530951364E-01
    43  4.2000000000000E-01  8.0232449326854E-01 -3.0820000403522E-01
    44  4.3000000000000E-01  8.2860453902366E-01 -3.1109026054912E-01
    45  4.4000000000000E-01  8.5454803893921E-01 -3.1327974097317E-01
    46  4.5000000000000E-01  8.8011412605458E-01 -3.1475443431967E-01
    47  4.6000000000000E-01  9.0526304121470E-01 -3.1550262072468E-01
    48  4.7000000000000E-01  9.2995616255806E-01 -3.1551482177965E-01
    49  4.8000000000000E-01  9.5415602923557E-01 -3.1478373781165E-01
    50  4.9000000000000E-01  9.7782635960143E-01 -3.1330417285179E-01
    51  5.0000000000000E-01  1.0009320641548E+00 -3.1107294811910E-01
    52  5.1000000000000E-01  1.0234392535452E+00 -3.0808880492868E-01
    53  5.2000000000000E-01  1.0453152419878E+00 -3.0435229800843E-01
    54  5.3000000000000E-01  1.0665285464617E+00 -2.9986568027635E-01
    55  5.4000000000000E-01  1.0870488820930E+00 -2.9463278019104E-01
    56  5.5000000000000E-01  1.1068471541433E+00 -2.8865887284007E-01
    57  5.6000000000000E-01  1.1258954470481E+00 -2.8195054597499E-01
    58  5.7000000000000E-01  1.1441670109592E+00 -2.7451556223606E-01
    59  5.8000000000000E-01  1.1616362462605E+00 -2.6636271883610E-01
    60  5.9000000000000E-01  1.1782786865345E+00 -2.5750170598882E-01
    61  6.0000000000000E-01  1.1940709804557E+00 -2.4794296537373E-01
    62  6.1000000000000E-01  1.2089908730929E+00 -2.3769754992701E-01
    63  6.2000000000000E-01  1.2230171870922E+00 -2.2677698623486E-01
    64  6.3000000000000E-01  1.2361298042089E+00 -2.1519314078380E-01
    65  6.4000000000000E-01  1.2483096476394E+00 -2.0295809129019E-01
    66  6.5000000000000E-01  1.2595386655908E+00 -1.9008400429035E-01
    67  6.6000000000000E-01  1.2697998165061E+00 -1.7658302012171E-01
    68  6.7000000000000E-01  1.2790770563353E+00 -1.6246714636656E-01
    69  6.8000000000000E-01  1.2873553282206E+00 -1.4774816076176E-01
    70  6.9000000000000E-01  1.2946205549284E+00 -1.3243752450190E-01
    71  7.0000000000000E-01  1.3008596343306E+00 -1.1654630677991E-01
    72  7.1000000000000E-01  1.3060604381987E+00 -1.0008512131834E-01
    73  7.2000000000000E-01  1.3102118145369E+00 -8.3064075547607E-02
    74  7.3000000000000E-01  1.3133035936360E+00 -6.5492732984291E-02
    75  7.4000000000000E-01  1.3153265979904E+00 -4.7380089254866E-02