Ba    ONCVPSP-4.0.1  r_core=   2.80614   2.80614   2.80614   2.80614
     56.0000     10.0000      220727    zatom,zion,pspd
     8      11   3     4   600     0    pspcod,pspxc,lmax,lloc,mmax,r2well
  5.99000000  5.00000000  0.00000000    rchrg fchrg qchrg
     2     2     2     2     0    nproj
     1     1           extension_switch
   0                         4.5543153485365E+00  6.7279204188571E-01
     1  0.0000000000000E+00  7.8478890053191E-13 -1.4230144840255E-12
     2  1.0000000000000E-02  2.9238734717677E-02 -1.0366334127521E-02
     3  2.0000000000000E-02  5.8462558561575E-02 -2.0720457543202E-02
     4  3.0000000000000E-02  8.7656557737673E-02 -3.1050151241707E-02
     5  4.0000000000000E-02  1.1680581266168E-01 -4.1343179717419E-02
     6  5.0000000000000E-02  1.4589539518928E-01 -5.1587282930703E-02
     7  6.0000000000000E-02  1.7491036599620E-01 -6.1770168532865E-02
     8  7.0000000000000E-02  2.0383577215727E-01 -7.1879504434350E-02
     9  8.0000000000000E-02  2.3265664497260E-01 -8.1902911799316E-02
    10  9.0000000000000E-02  2.6135799808825E-01 -9.1827958547944E-02
    11  1.0000000000000E-01  2.8992482595754E-01 -1.0164215344576E-01
    12  1.1000000000000E-01  3.1834210268764E-01 -1.1133294085670E-01
    13  1.2000000000000E-01  3.4659478131495E-01 -1.2088769623412E-01
    14  1.3000000000000E-01  3.7466779355058E-01 -1.3029372242048E-01
    15  1.4000000000000E-01  4.0254605003583E-01 -1.3953824682357E-01
    16  1.5000000000000E-01  4.3021444114529E-01 -1.4860841953291E-01
    17  1.6000000000000E-01  4.5765783837309E-01 -1.5749131243657E-01
    18  1.7000000000000E-01  4.8486109633544E-01 -1.6617391939395E-01
    19  1.8000000000000E-01  5.1180905542030E-01 -1.7464315751601E-01
    20  1.9000000000000E-01  5.3848654511219E-01 -1.8288586959950E-01
    21  2.0000000000000E-01  5.6487838801768E-01 -1.9088882775697E-01
    22  2.1000000000000E-01  5.9096940461415E-01 -1.9863873827930E-01
    23  2.2000000000000E-01  6.1674441874141E-01 -2.0612224776202E-01
    24  2.3000000000000E-01  6.4218826385294E-01 -2.1332595052154E-01
    25  2.4000000000000E-01  6.6728579004036E-01 -2.2023639732177E-01
    26  2.5000000000000E-01  6.9202187184138E-01 -2.2684010542577E-01
    27  2.6000000000000E-01  7.1638141683853E-01 -2.3312356998160E-01
    28  2.7000000000000E-01  7.4034937505250E-01 -2.3907327674558E-01
    29  2.8000000000000E-01  7.6391074913075E-01 -2.4467571614015E-01
    30  2.9000000000000E-01  7.8705060532850E-01 -2.4991739863787E-01
    31  3.0000000000000E-01  8.0975408527615E-01 -2.5478487145700E-01
    32  3.1000000000000E-01  8.3200641852343E-01 -2.5926473654823E-01
    33  3.2000000000000E-01  8.5379293584778E-01 -2.6334366984632E-01
    34  3.3000000000000E-01  8.7509908331050E-01 -2.6700844175446E-01
    35  3.4000000000000E-01  8.9591043704134E-01 -2.7024593882358E-01
    36  3.5000000000000E-01  9.1621271872894E-01 -2.7304318658316E-01
    37  3.6000000000000E-01  9.3599181179102E-01 -2.7538737347444E-01
    38  3.7000000000000E-01  9.5523377819541E-01 -2.7726587583173E-01
    39  3.8000000000000E-01  9.7392487589975E-01 -2.7866628385218E-01
    40  3.9000000000000E-01  9.9205157687489E-01 -2.7957642848949E-01
    41  4.0000000000000E-01  1.0096005856739E+00 -2.7998440920187E-01
    42  4.1000000000000E-01  1.0265588585060E+00 -2.7987862248042E-01
    43  4.2000000000000E-01  1.0429136227723E+00 -2.7924779107912E-01
    44  4.3000000000000E-01  1.0586523970171E+00 -2.7808099386411E-01
    45  4.4000000000000E-01  1.0737630112461E+00 -2.7636769619547E-01
    46  4.5000000000000E-01  1.0882336275626E+00 -2.7409778075143E-01
    47  4.6000000000000E-01  1.1020527610666E+00 -2.7126157870173E-01
    48  4.7000000000000E-01  1.1152093009647E+00 -2.6784990113339E-01
    49  4.8000000000000E-01  1.1276925318318E+00 -2.6385407062989E-01
    50  4.9000000000000E-01  1.1394921549697E+00 -2.5926595290224E-01
    51  5.0000000000000E-01  1.1505983098002E+00 -2.5407798836830E-01
    52  5.1000000000000E-01  1.1610015952339E+00 -2.4828322357507E-01
    53  5.2000000000000E-01  1.1706930909525E+00 -2.4187534235745E-01
    54  5.3000000000000E-01  1.1796643785418E+00 -2.3484869662568E-01
    55  5.4000000000000E-01  1.1879075624119E+00 -2.2719833667338E-01
    56  5.5000000000000E-01  1.1954152904419E+00 -2.1892004089753E-01
    57  5.6000000000000E-01  1.2021807742834E+00 -2.1001034482197E-01
    58  5.7000000000000E-01  1.2081978092604E+00 -2.0046656931659E-01
    59  5.8000000000000E-01  1.2134607938001E+00 -1.9028684790471E-01
    60  5.9000000000000E-01  1.2179647483318E+00 -1.7947015305302E-01
    61  6.0000000000000E-01  1.2217053335901E+00 -1.6801632133920E-01
    62  6.1000000000000E-01  1.2246788682604E+00 -1.5592607739499E-01
    63  6.2000000000000E-01  1.2268823459050E+00 -1.4320105652413E-01
    64  6.3000000000000E-01  1.2283134511089E+00 -1.2984382589736E-01
    65  6.4000000000000E-01  1.2289705747866E+00 -1.1585790422973E-01
    66  6.5000000000000E-01  1.2288528285921E+00 -1.0124777984844E-01
    67  6.6000000000000E-01  1.2279600583758E+00 -8.6018927063114E-02
    68  6.7000000000000E-01  1.2262928566348E+00 -7.0177820754271E-02
    69  6.8000000000000E-01  1.2238525739033E+00 -5.3731949099793E-02
    70  6.9000000000000E-01  1.2206413290344E+00 -3.6689824363752E-02
    71  7.0000000000000E-01  1.2166620183248E+00 -1.9060991676487E-02
    72  7.1000000000000E-01  1.2119183234380E+00 -8.5603573987910E-04
    73  7.2000000000000E-01  1.2064147180828E+00  1.7913414603103E-02
    74  7.3000000000000E-01  1.2001564734082E+00  3.7234683990193E-02
    75  7.4000000000000E-01  1.1931496620775E+00  5.7094050402738E-02
    76  7.5000000000000E-01  1.1854011609885E+00  7.7476747314103E-02
    77  7.6000000000000E-01  1.1769186526085E+00  9.8366968161610E-02
    78  7.7000000000000E-01  1.1677106248980E+00  1.1974787317417E-01
    79  7.8000000000000E-01  1.1577863697984E+00  1.4160159858147E-01
    80  7.9000000000000E-01  1.1471559802641E+00  1.6390926822443E-01
    81  8.0000000000000E-01  1.1358303458212E+00  1.8665100757954E-01
    82  8.1000000000000E-01  1.1238211466408E+00  2.0980596020427E-01
    83  8.2000000000000E-01  1.1111408461171E+00  2.3335230660298E-01
    84  8.3000000000000E-01  1.0978026819438E+00  2.5726728550709E-01
    85  8.4000000000000E-01  1.0838206556871E+00  2.8152721755611E-01
    86  8.5000000000000E-01  1.0692095208581E+00  3.0610753135958E-01
    87  8.6000000000000E-01  1.0539847694886E+00  3.3098279191371E-01
    88  8.7000000000000E-01  1.0381626172201E+00  3.5612673133933E-01
    89  8.8000000000000E-01  1.0217599869201E+00  3.8151228190190E-01
    90  8.9000000000000E-01  1.0047944908412E+00  4.0711161126747E-01
    91  9.0000000000000E-01  9.8728441134484E-01  4.3289615994232E-01
    92  9.1000000000000E-01  9.6924868021268E-01  4.5883668083775E-01
    93  9.2000000000000E-01  9.5070685657557E-01  4.8490328089551E-01
    94  9.3000000000000E-01  9.3167910348994E-01  5.1106546470321E-01
    95  9.4000000000000E-01  9.1218616319777E-01  5.3729218002353E-01
    96  9.5000000000000E-01  8.9224933110857E-01  5.6355186515532E-01
    97  9.6000000000000E-01  8.7189042854529E-01  5.8981249803933E-01
    98  9.7000000000000E-01  8.5113177429968E-01  6.1604164701599E-01
    99  9.8000000000000E-01  8.2999615504528E-01  6.4220652313811E-01
   100  9.9000000000000E-01  8.0850679465990E-01  6.6827403393603E-01
   101  1.0000000000000E+00  7.8668732251182E-01  6.9421083852900E-01
   102  1.0100000000000E+00  7.6456174076719E-01  7.1998340397163E-01
   103  1.0200000000000E+00  7.4215439077856E-01  7.4555806272095E-01
   104  1.0300000000000E+00  7.1948991861697E-01  7.7090107110552E-01
   105  1.0400000000000E+00  6.9659323981270E-01  7.9597866867499E-01
   106  1.0500000000000E+00  6.7348950337165E-01  8.2075713830518E-01
   107  1.0600000000000E+00  6.5020405513670E-01  8.4520286693105E-01
   108  1.0700000000000E+00  6.2676240056508E-01  8.6928240677785E-01
   109  1.0800000000000E+00  6.0319016699467E-01  8.9296253695789E-01
   110  1.0900000000000E+00  5.7951306547368E-01  9.1621032529928E-01
   111  1.1000000000000E+00  5.5575685222948E-01  9.3899319027106E-01
   112  1.1100000000000E+00  5.3194728985361E-01  9.6127896286827E-01
   113  1.1200000000000E+00  5.0811010828105E-01  9.8303594831927E-01
   114  1.1300000000000E+00  4.8427096564258E-01  1.0042329874778E+00
   115  1.1400000000000E+00  4.6045540906978E-01  1.0248395177613E+00
   116  1.1500000000000E+00  4.3668883553261E-01  1.0448256334980E+00
   117  1.1600000000000E+00  4.1299645278993E-01  1.0641621455450E+00
   118  1.1700000000000E+00  3.8940324053309E-01  1.0828206400406E+00
   119  1.1800000000000E+00  3.6593391180304E-01  1.1007735361565E+00
   120  1.1900000000000E+00  3.4261287476067E-01  1.1179941427144E+00
   121  1.2000000000000E+00  3.1946419488998E-01  1.1344567135357E+00
   122  1.2100000000000E+00  2.9651155771264E-01  1.1501365013938E+00
   123  1.2200000000000E+00  2.7377823209210E-01  1.1650098104413E+00
   124  1.2300000000000E+00  2.5128703420386E-01  1.1790540469875E+00
   125  1.2400000000000E+00  2.2906029224771E-01  1.1922477685024E+00
   126  1.2500000000000E+00  2.0711981197616E-01  1.2045707307304E+00
   127  1.2600000000000E+00  1.8548684311177E-01  1.2160039327964E+00
   128  1.2700000000000E+00  1.6418204672436E-01  1.2265296601943E+00
   129  1.2800000000000E+00  1.4322546363719E-01  1.2361315255479E+00
   130  1.2900000000000E+00  1.2263648392921E-01  1.2447945070430E+00
   131  1.3000000000000E+00  1.0243381759828E-01  1.2525049844305E+00
   132  1.3100000000000E+00  8.2635466447798E-02  1.2592507725059E+00
   133  1.3200000000000E+00  6.3258697256959E-02  1.2650211519759E+00
   134  1.3300000000000E+00  4.4320016291987E-02  1.2698068976284E+00
   135  1.3400000000000E+00  2.5835145213227E-02  1.2736003037250E+00
   136  1.3500000000000E+00  7.8189984299069E-03  1.2763952065434E+00
   137  1.3600000000000E+00 -9.7143380484269E-03  1.2781870040013E+00
   138  1.3700000000000E+00 -2.6751626217841E-02  1.2789726722976E+00
   139  1.3800000000000E+00 -4.3280494100660E-02  1.2787507795161E+00
   140  1.3900000000000E+00 -5.9289452141181E-02  1.2775214961387E+00
   141  1.4000000000000E+00 -7.4767907940288E-02  1.2752866024246E+00
   142  1.4100000000000E+00 -8.9706179296135E-02  1.2720494926149E+00
   143  1.4200000000000E+00 -1.0409550552148E-01  1.2678151759309E+00
   144  1.4300000000000E+00 -1.1792805701177E-01  1.2625902743386E+00
   145  1.4400000000000E+00 -1.3119694304164E-01  1.2563830170595E+00
   146  1.4500000000000E+00 -1.4389621777098E-01  1.2492032318117E+00
   147  1.4600000000000E+00 -1.5602088444551E-01  1.2410623327758E+00
   148  1.4700000000000E+00 -1.6756689778011E-01  1.2319733052801E+00
   149  1.4800000000000E+00 -1.7853116451718E-01  1.2219506872133E+00
   150  1.4900000000000E+00 -1.8891154215559E-01  1.2110105471712E+00
   151  1.5000000000000E+00 -1.9870683584960E-01  1.1991704593560E+00
   152  1.5100000000000E+00 -2.0791679348067E-01  1.1864494752508E+00
   153  1.5200000000000E+00 -2.1654209890866E-01  1.1728680920961E+00
   154  1.5300000000000E+00 -2.2458436341254E-01  1.1584482182038E+00
   155  1.5400000000000E+00 -2.3204611533412E-01  1.1432131351477E+00
   156  1.5500000000000E+00 -2.3893078794179E-01  1.1271874568775E+00
   157  1.5600000000000E+00 -2.4524270553491E-01  1.1103970858056E+00
   158  1.5700000000000E+00 -2.5098706781233E-01  1.0928691659241E+00
   159  1.5800000000000E+00 -2.5616993253230E-01  1.0746320330138E+00
   160  1.5900000000000E+00 -2.6079819649385E-01  1.0557151620108E+00
   161  1.6000000000000E+00 -2.6487957487300E-01  1.0361491116039E+00
   162  1.6100000000000E+00 -2.6842257895020E-01  1.0159654661368E+00
   163  1.6200000000000E+00 -2.7143649226795E-01  9.9519677489811E-01
   164  1.6300000000000E+00 -2.7393134526093E-01  9.7387648888211E-01
   165  1.6400000000000E+00 -2.7591788840311E-01  9.5203889511062E-01
   166  1.6500000000000E+00 -2.7740756391914E-01  9.2971904860836E-01
   167  1.6600000000000E+00 -2.7841247610973E-01  9.0695270212822E-01
   168  1.6700000000000E+00 -2.7894536034303E-01  8.8377623372664E-01
   169  1.6800000000000E+00 -2.7901955076609E-01  8.6022657229193E-01
   170  1.6900000000000E+00 -2.7864894679273E-01  8.3634112113158E-01
   171  1.7000000000000E+00 -2.7784797842579E-01  8.1215767972716E-01
   172  1.7100000000000E+00 -2.7663157047370E-01  7.8771436376778E-01
   173  1.7200000000000E+00 -2.7501510572275E-01  7.6304952357537E-01
   174  1.7300000000000E+00 -2.7301438712801E-01  7.3820166103665E-01
   175  1.7400000000000E+00 -2.7064559908701E-01  7.1320934515853E-01
   176  1.7500000000000E+00 -2.6792526786151E-01  6.8811112636488E-01
   177  1.7600000000000E+00 -2.6487022121368E-01  6.6294544965365E-01
   178  1.7700000000000E+00 -2.6149754732377E-01  6.3775056673420E-01
   179  1.7800000000000E+00 -2.5782455305697E-01  6.1256444726522E-01
   180  1.7900000000000E+00 -2.5386872164783E-01  5.8742468931379E-01
   181  1.8000000000000E+00 -2.4964766987066E-01  5.6236842915603E-01
   182  1.8100000000000E+00 -2.4517910476478E-01  5.3743225054000E-01
   183  1.8200000000000E+00 -2.4048077998338E-01  5.1265209353007E-01
   184  1.8300000000000E+00 -2.3557045183441E-01  4.8806316305205E-01
   185  1.8400000000000E+00 -2.3046583508213E-01  4.6369983725668E-01
   186  1.8500000000000E+00 -2.2518455857678E-01  4.3959557581808E-01
   187  1.8600000000000E+00 -2.1974412077992E-01  4.1578282828192E-01
   188  1.8700000000000E+00 -2.1416184525163E-01  3.9229294257639E-01
   189  1.8800000000000E+00 -2.0845483616530E-01  3.6915607379701E-01
   190  1.8900000000000E+00 -2.0263993391435E-01  3.4640109337370E-01
   191  1.9000000000000E+00 -1.9673367087426E-01  3.2405549872644E-01
   192  1.9100000000000E+00 -1.9075222738173E-01  3.0214532351262E-01
   193  1.9200000000000E+00 -1.8471138799158E-01  2.8069504856659E-01
   194  1.9300000000000E+00 -1.7862649807021E-01  2.5972751362847E-01
   195  1.9400000000000E+00 -1.7251242078268E-01  2.3926382995603E-01
   196  1.9500000000000E+00 -1.6638349452894E-01  2.1932329390987E-01
   197  1.9600000000000E+00 -1.6025349088246E-01  1.9992330159839E-01
   198  1.9700000000000E+00 -1.5413557308264E-01  1.8107926466517E-01
   199  1.9800000000000E+00 -1.4804225506863E-01  1.6280452702956E-01
   200  1.9900000000000E+00 -1.4198536106571E-01  1.4511028255191E-01
   201  2.0000000000000E+00 -1.3597598955738E-01  1.2800550982029E-01
   202  2.0100000000000E+00 -1.3002446005535E-01  1.1149683089567E-01
   203  2.0200000000000E+00 -1.2414034257638E-01  9.5588727821662E-02
   204  2.0300000000000E+00 -1.1833259731701E-01  8.0284219721180E-02
   205  2.0400000000000E+00 -1.1260970251569E-01  6.5585449996864E-02
   206  2.0500000000000E+00 -1.0697964902001E-01  5.1493676494635E-02
   207  2.0600000000000E+00 -1.0144994012492E-01  3.8009282285146E-02
   208  2.0700000000000E+00 -9.6027591840025E-02  2.5131786148085E-02
   209  2.0800000000000E+00 -9.0719133945011E-02  1.2859854016377E-02
   210  2.0900000000000E+00 -8.5530611665961E-02  1.1913108063115E-03
   211  2.1000000000000E+00 -8.0467588265149E-02 -9.8768460694296E-03
   212  2.1100000000000E+00 -7.5535148393775E-02 -2.0348432119009E-02
   213  2.1200000000000E+00 -7.0737902226308E-02 -3.0228060004280E-02
   214  2.1300000000000E+00 -6.6079990352223E-02 -3.9521122650965E-02
   215  2.1400000000000E+00 -6.1565089396293E-02 -4.8233775313284E-02
   216  2.1500000000000E+00 -5.7196418344544E-02 -5.6372916641611E-02
   217  2.1600000000000E+00 -5.2976745563087E-02 -6.3946168759383E-02
   218  2.1700000000000E+00 -4.8908396476676E-02 -7.0961856434040E-02
   219  2.1800000000000E+00 -4.4993261886396E-02 -7.7428985374498E-02
   220  2.1900000000000E+00 -4.1232806907952E-02 -8.3357219677243E-02
   221  2.2000000000000E+00 -3.7628080493742E-02 -8.8756858513203E-02
   222  2.2100000000000E+00 -3.4179725525148E-02 -9.3638812054216E-02
   223  2.2200000000000E+00 -3.0887989448093E-02 -9.8014576689342E-02
   224  2.2300000000000E+00 -2.7752735424776E-02 -1.0189620957972E-01
   225  2.2400000000000E+00 -2.4773453972121E-02 -1.0529630260836E-01
   226  2.2500000000000E+00 -2.1949275070380E-02 -1.0822795573077E-01
   227  2.2600000000000E+00 -1.9278980713495E-02 -1.1070474977689E-01
   228  2.2700000000000E+00 -1.6761017874200E-02 -1.1274071874824E-01
   229  2.2800000000000E+00 -1.4393511855540E-02 -1.1435032165827E-01
   230  2.2900000000000E+00 -1.2174280011298E-02 -1.1554841392274E-01
   231  2.3000000000000E+00 -1.0100845805634E-02 -1.1635021835235E-01
   232  2.3100000000000E+00 -8.1704531841734E-03 -1.1677129579173E-01
   233  2.3200000000000E+00 -6.3800812375002E-03 -1.1682751541661E-01
   234  2.3300000000000E+00 -4.7264591261584E-03 -1.1653502474426E-01
   235  2.3400000000000E+00 -3.2060812438191E-03 -1.1591021938464E-01
   236  2.3500000000000E+00 -1.8152225763644E-03 -1.1496971262641E-01
   237  2.3600000000000E+00 -5.4995433201145E-04 -1.1373030453546E-01
   238  2.3700000000000E+00  5.9384037932513E-04 -1.1220895129913E-01
   239  2.3800000000000E+00  1.6204508603486E-03 -1.1042273491328E-01
   240  2.3900000000000E+00  2.5343224663585E-03 -1.0838883078284E-01
   241  2.4000000000000E+00  3.3400406869315E-03 -1.0612447714686E-01
   242  2.4100000000000E+00  4.0423152763504E-03 -1.0364694487751E-01
   243  2.4200000000000E+00  4.6459638214478E-03 -1.0097350542729E-01
   244  2.4300000000000E+00  5.1558956137081E-03 -9.8121399949696E-02
   245  2.4400000000000E+00  5.5770955360102E-03 -9.5107808511764E-02
   246  2.4500000000000E+00  5.9146079183897E-03 -9.1949819183979E-02
   247  2.4600000000000E+00  6.1735204865954E-03 -8.8664397394873E-02
   248  2.4700000000000E+00  6.3589483981152E-03 -8.5268355480064E-02
   249  2.4800000000000E+00  6.4760183950238E-03 -8.1778322479389E-02
   250  2.4900000000000E+00  6.5298530954562E-03 -7.8210714209539E-02
   251  2.5000000000000E+00  6.5255554523008E-03 -7.4581703664644E-02
   252  2.5100000000000E+00  6.4681934039334E-03 -7.0907191784772E-02
   253  2.5200000000000E+00  6.3627847433476E-03 -6.7202778637651E-02
   254  2.5300000000000E+00  6.2142822278384E-03 -6.3483735046661E-02
   255  2.5400000000000E+00  6.0275589538733E-03 -5.9764974707233E-02
   256  2.5500000000000E+00  5.8073940260732E-03 -5.6061026848497E-02
   257  2.5600000000000E+00  5.5584585402049E-03 -5.2386009468685E-02
   258  2.5700000000000E+00  5.2853019039934E-03 -4.8753603186940E-02
   259  2.5800000000000E+00  4.9923385235615E-03 -4.5177025767459E-02
   260  2.5900000000000E+00  4.6838348744556E-03 -4.1669007345293E-02
   261  2.6000000000000E+00  4.3638969798304E-03 -3.8241766395586E-02
   262  2.6100000000000E+00  4.0364583193405E-03 -3.4906986491686E-02
   263  2.6200000000000E+00  3.7052688813380E-03 -3.1675795833320E-02
   264  2.6300000000000E+00  3.3738795501168E-03 -2.8558733265810E-02
   265  2.6400000000000E+00  3.0456415053314E-03 -2.5565755768249E-02
   266  2.6500000000000E+00  2.7236880962971E-03 -2.2706196059537E-02
   267  2.6600000000000E+00  2.4109227767701E-03 -1.9988739743508E-02
   268  2.6700000000000E+00  2.1099131914667E-03 -1.7421131479782E-02
   269  2.6800000000000E+00  1.8227131960584E-03 -1.5009676530916E-02
   270  2.6900000000000E+00  1.5513953358383E-03 -1.2760743804109E-02
   271  2.7000000000000E+00  1.2981022434641E-03 -1.0680921007318E-02
   272  2.7100000000000E+00  1.0646260215883E-03 -8.7758511521504E-03
   273  2.7200000000000E+00  8.5246144948631E-04 -7.0503840376781E-03
   274  2.7300000000000E+00  6.6281753723793E-04 -5.5086104084799E-03
   275  2.7400000000000E+00  4.9660256475468E-04 -4.1538236371443E-03
   276  2.7500000000000E+00  3.5442373053893E-04 -2.9885207995114E-03
   277  2.7600000000000E+00  2.3662177540716E-04 -2.0147585353538E-03
   278  2.7700000000000E+00  1.4311222972450E-04 -1.2326619369939E-03
   279  2.7800000000000E+00  7.3222865090207E-05 -6.3899525867763E-04
   280  2.7900000000000E+00  2.7606864536981E-05 -2.4474272116516E-04
   281  2.8000000000000E+00  5.2775651183646E-06 -4.7737997180513E-05
   282  2.8100000000000E+00 -1.2218564535973E-06  1.1082927572208E-05
   283  2.8200000000000E+00 -5.2552483088651E-07  4.8251532940708E-06
   284  2.8300  0. -0.
   285  2.8400 -0.  0.
   286  2.8500 -0.  0.
   287  2.8600  0. -0.
   288  2.8700  0. -0.
   289  2.8800  0.  0.
   290  2.8900  0.  0.
   291  2.9000  0.  0.
   292  2.9100  0.  0.
   293  2.9200  0.  0.
   294  2.9300  0.  0.
   295  2.9400  0.  0.
   296  2.9500  0.  0.
   297  2.9600  0.  0.
   298  2.9700  0.  0.
   299  2.9800  0.  0.
   300  2.9900  0.  0.
   301  3.0000  0.  0.
   302  3.0100  0.  0.
   303  3.0200  0.  0.
   304  3.0300  0.  0.
   305  3.0400  0.  0.
   306  3.0500  0.  0.
   307  3.0600  0.  0.
   308  3.0700  0.  0.
   309  3.0800  0.  0.
   310  3.0900  0.  0.
   311  3.1000  0.  0.
   312  3.1100  0.  0.
   313  3.1200  0.  0.
   314  3.1300  0.  0.
   315  3.1400  0.  0.
   316  3.1500  0.  0.
   317  3.1600  0.  0.
   318  3.1700  0.  0.
   319  3.1800  0.  0.
   320  3.1900  0.  0.
   321  3.2000  0.  0.
   322  3.2100  0.  0.
   323  3.2200  0.  0.
   324  3.2300  0.  0.
   325  3.2400  0.  0.
   326  3.2500  0.  0.
   327  3.2600  0.  0.
   328  3.2700  0.  0.
   329  3.2800  0.  0.
   330  3.2900  0.  0.
   331  3.3000  0.  0.
   332  3.3100  0.  0.
   333  3.3200  0.  0.
   334  3.3300  0.  0.
   335  3.3400  0.  0.
   336  3.3500  0.  0.
   337  3.3600  0.  0.
   338  3.3700  0.  0.
   339  3.3800  0.  0.
   340  3.3900  0.  0.
   341  3.4000  0.  0.
   342  3.4100  0.  0.
   343  3.4200  0.  0.
   344  3.4300  0.  0.
   345  3.4400  0.  0.
   346  3.4500  0.  0.
   347  3.4600  0.  0.
   348  3.4700  0.  0.
   349  3.4800  0.  0.
   350  3.4900  0.  0.
   351  3.5000  0.  0.
   352  3.5100  0.  0.
   353  3.5200  0.  0.
   354  3.5300  0.  0.
   355  3.5400  0.  0.
   356  3.5500  0.  0.
   357  3.5600  0.  0.
   358  3.5700  0.  0.
   359  3.5800  0.  0.
   360  3.5900  0.  0.
   361  3.6000  0.  0.
   362  3.6100  0.  0.
   363  3.6200  0.  0.
   364  3.6300  0.  0.
   365  3.6400  0.  0.
   366  3.6500  0.  0.
   367  3.6600  0.  0.
   368  3.6700  0.  0.
   369  3.6800  0.  0.
   370  3.6900  0.  0.
   371  3.7000  0.  0.
   372  3.7100  0.  0.
   373  3.7200  0.  0.
   374  3.7300  0.  0.
   375  3.7400  0.  0.
   376  3.7500  0.  0.
   377  3.7600  0.  0.
   378  3.7700  0.  0.
   379  3.7800  0.  0.
   380  3.7900  0.  0.
   381  3.8000  0.  0.
   382  3.8100  0.  0.
   383  3.8200  0.  0.
   384  3.8300  0.  0.
   385  3.8400  0.  0.
   386  3.8500  0.  0.
   387  3.8600  0.  0.
   388  3.8700  0.  0.
   389  3.8800  0.  0.
   390  3.8900  0.  0.
   391  3.9000  0.  0.
   392  3.9100  0.  0.
   393  3.9200  0.  0.
   394  3.9300  0.  0.
   395  3.9400  0.  0.
   396  3.9500  0.  0.
   397  3.9600  0.  0.
   398  3.9700  0.  0.
   399  3.9800  0.  0.
   400  3.9900  0.  0.
   401  4.0000  0.  0.
   402  4.0100  0.  0.
   403  4.0200  0.  0.
   404  4.0300  0.  0.
   405  4.0400  0.  0.
   406  4.0500  0.  0.
   407  4.0600  0.  0.
   408  4.0700  0.  0.
   409  4.0800  0.  0.
   410  4.0900  0.  0.
   411  4.1000  0.  0.
   412  4.1100  0.  0.
   413  4.1200  0.  0.
   414  4.1300  0.  0.
   415  4.1400  0.  0.
   416  4.1500  0.  0.
   417  4.1600  0.  0.
   418  4.1700  0.  0.
   419  4.1800  0.  0.
   420  4.1900  0.  0.
   421  4.2000  0.  0.
   422  4.2100  0.  0.
   423  4.2200  0.  0.
   424  4.2300  0.  0.
   425  4.2400  0.  0.
   426  4.2500  0.  0.
   427  4.2600  0.  0.
   428  4.2700  0.  0.
   429  4.2800  0.  0.
   430  4.2900  0.  0.
   431  4.3000  0.  0.
   432  4.3100  0.  0.
   433  4.3200  0.  0.
   434  4.3300  0.  0.
   435  4.3400  0.  0.
   436  4.3500  0.  0.
   437  4.3600  0.  0.
   438  4.3700  0.  0.
   439  4.3800  0.  0.
   440  4.3900  0.  0.
   441  4.4000  0.  0.
   442  4.4100  0.  0.
   443  4.4200  0.  0.
   444  4.4300  0.  0.
   445  4.4400  0.  0.
   446  4.4500  0.  0.
   447  4.4600  0.  0.
   448  4.4700  0.  0.
   449  4.4800  0.  0.
   450  4.4900  0.  0.
   451  4.5000  0.  0.
   452  4.5100  0.  0.
   453  4.5200  0.  0.
   454  4.5300  0.  0.
   455  4.5400  0.  0.
   456  4.5500  0.  0.
   457  4.5600  0.  0.
   458  4.5700  0.  0.
   459  4.5800  0.  0.
   460  4.5900  0.  0.
   461  4.6000  0.  0.
   462  4.6100  0.  0.
   463  4.6200  0.  0.
   464  4.6300  0.  0.
   465  4.6400  0.  0.
   466  4.6500  0.  0.
   467  4.6600  0.  0.
   468  4.6700  0.  0.
   469  4.6800  0.  0.
   470  4.6900  0.  0.
   471  4.7000  0.  0.
   472  4.7100  0.  0.
   473  4.7200  0.  0.
   474  4.7300  0.  0.
   475  4.7400  0.  0.
   476  4.7500  0.  0.
   477  4.7600  0.  0.
   478  4.7700  0.  0.
   479  4.7800  0.  0.
   480  4.7900  0.  0.
   481  4.8000  0.  0.
   482  4.8100  0.  0.
   483  4.8200  0.  0.
   484  4.8300  0.  0.
   485  4.8400  0.  0.
   486  4.8500  0.  0.
   487  4.8600  0.  0.
   488  4.8700  0.  0.
   489  4.8800  0.  0.
   490  4.8900  0.  0.
   491  4.9000  0.  0.
   492  4.9100  0.  0.
   493  4.9200  0.  0.
   494  4.9300  0.  0.
   495  4.9400  0.  0.
   496  4.9500  0.  0.
   497  4.9600  0.  0.
   498  4.9700  0.  0.
   499  4.9800  0.  0.
   500  4.9900  0.  0.
   501  5.0000  0.  0.
   502  5.0100  0.  0.
   503  5.0200  0.  0.
   504  5.0300  0.  0.
   505  5.0400  0.  0.
   506  5.0500  0.  0.
   507  5.0600  0.  0.
   508  5.0700  0.  0.
   509  5.0800  0.  0.
   510  5.0900  0.  0.
   511  5.1000  0.  0.
   512  5.1100  0.  0.
   513  5.1200  0.  0.
   514  5.1300  0.  0.
   515  5.1400  0.  0.
   516  5.1500  0.  0.
   517  5.1600  0.  0.
   518  5.1700  0.  0.
   519  5.1800  0.  0.
   520  5.1900  0.  0.
   521  5.2000  0.  0.
   522  5.2100  0.  0.
   523  5.2200  0.  0.
   524  5.2300  0.  0.
   525  5.2400  0.  0.
   526  5.2500  0.  0.
   527  5.2600  0.  0.
   528  5.2700  0.  0.
   529  5.2800  0.  0.
   530  5.2900  0.  0.
   531  5.3000  0.  0.
   532  5.3100  0.  0.
   533  5.3200  0.  0.
   534  5.3300  0.  0.
   535  5.3400  0.  0.
   536  5.3500  0.  0.
   537  5.3600  0.  0.
   538  5.3700  0.  0.
   539  5.3800  0.  0.
   540  5.3900  0.  0.
   541  5.4000  0.  0.
   542  5.4100  0.  0.
   543  5.4200  0.  0.
   544  5.4300  0.  0.
   545  5.4400  0.  0.
   546  5.4500  0.  0.
   547  5.4600  0.  0.
   548  5.4700  0.  0.
   549  5.4800  0.  0.
   550  5.4900  0.  0.
   551  5.5000  0.  0.
   552  5.5100  0.  0.
   553  5.5200  0.  0.
   554  5.5300  0.  0.
   555  5.5400  0.  0.
   556  5.5500  0.  0.
   557  5.5600  0.  0.
   558  5.5700  0.  0.
   559  5.5800  0.  0.
   560  5.5900  0.  0.
   561  5.6000  0.  0.
   562  5.6100  0.  0.
   563  5.6200  0.  0.
   564  5.6300  0.  0.
   565  5.6400  0.  0.
   566  5.6500  0.  0.
   567  5.6600  0.  0.
   568  5.6700  0.  0.
   569  5.6800  0.  0.
   570  5.6900  0.  0.
   571  5.7000  0.  0.
   572  5.7100  0.  0.
   573  5.7200  0.  0.
   574  5.7300  0.  0.
   575  5.7400  0.  0.
   576  5.7500  0.  0.
   577  5.7600  0.  0.
   578  5.7700  0.  0.
   579  5.7800  0.  0.
   580  5.7900  0.  0.
   581  5.8000  0.  0.
   582  5.8100  0.  0.
   583  5.8200  0.  0.
   584  5.8300  0.  0.
   585  5.8400  0.  0.
   586  5.8500  0.  0.
   587  5.8600  0.  0.
   588  5.8700  0.  0.
   589  5.8800  0.  0.
   590  5.8900  0.  0.
   591  5.9000  0.  0.
   592  5.9100  0.  0.
   593  5.9200  0.  0.
   594  5.9300  0.  0.
   595  5.9400  0.  0.
   596  5.9500  0.  0.
   597  5.9600  0.  0.
   598  5.9700  0.  0.
   599  5.9800  0.  0.
   600  5.9900  0.  0.
   1                         2.8815156580067E+00  5.2871201328205E-01
     1  0.0000000000000E+00 -3.4111227731337E-11  7.6705621021578E-11
     2  1.0000000000000E-02  3.8045723691845E-04 -7.7419070017435E-05
     3  2.0000000000000E-02  1.5216458062078E-03 -3.1010077594800E-04
     4  3.0000000000000E-02  3.4230141818429E-03 -6.9931308831327E-04
     5  4.0000000000000E-02  6.0836361663322E-03 -1.2471509413567E-03
     6  5.0000000000000E-02  9.5022004723744E-03 -1.9565088493425E-03
     7  6.0000000000000E-02  1.3676996262411E-02 -2.8310428509033E-03
     8  7.0000000000000E-02  1.8605894770342E-02 -3.8751220608658E-03
     9  8.0000000000000E-02  2.4286327163799E-02 -5.0937701856865E-03
    10  9.0000000000000E-02  3.0715258838444E-02 -6.4925974332313E-03
    11  1.0000000000000E-01  3.7889160367662E-02 -8.0777233193133E-03
    12  1.1000000000000E-01  4.5803975361377E-02 -9.8556909420845E-03
    13  1.2000000000000E-01  5.4455085516515E-02 -1.1833373360189E-02
    14  1.3000000000000E-01  6.3837273168547E-02 -1.4017872771583E-02
    15  1.4000000000000E-01  7.3944681678438E-02 -1.6416413246249E-02
    16  1.5000000000000E-01  8.4770774012076E-02 -1.9036227817680E-02
    17  1.6000000000000E-01  9.6308289889583E-02 -2.1884440784406E-02
    18  1.7000000000000E-01  1.0854920189985E-01 -2.4967946113783E-02
    19  1.8000000000000E-01  1.2148467099095E-01 -2.8293282875502E-02
    20  1.9000000000000E-01  1.3510500175948E-01 -3.1866508661351E-02
    21  2.0000000000000E-01  1.4939959797200E-01 -3.5693071970893E-02
    22  2.1000000000000E-01  1.6435691875814E-01 -3.9777684559170E-02
    23  2.2000000000000E-01  1.7996443591924E-01 -4.4124194752746E-02
    24  2.3000000000000E-01  1.9620859279721E-01 -4.8735462743795E-02
    25  2.4000000000000E-01  2.1307476514596E-01 -5.3613238868786E-02
    26  2.5000000000000E-01  2.3054722444315E-01 -5.8758045868456E-02
    27  2.6000000000000E-01  2.4860910407119E-01 -6.4169066109214E-02
    28  2.7000000000000E-01  2.6724236878606E-01 -6.9844034723048E-02
    29  2.8000000000000E-01  2.8642778787773E-01 -7.5779139593408E-02
    30  2.9000000000000E-01  3.0614491240969E-01 -8.1968929078669E-02
    31  3.0000000000000E-01  3.2637205690496E-01 -8.8406228322695E-02
    32  3.1000000000000E-01  3.4708628582374E-01 -9.5082064954087E-02
    33  3.2000000000000E-01  3.6826340515302E-01 -1.0198560492211E-01
    34  3.3000000000000E-01  3.8987795940092E-01 -1.0910409915830E-01