La    ONCVPSP-4.0.1  r_core=   2.80683   2.50527   2.80683   2.70787
     57.0000     11.0000      210704    zatom,zion,pspd
     8      11   3     4   600     0    pspcod,pspxc,lmax,lloc,mmax,r2well
  5.99000000  5.00000000  0.00000000    rchrg fchrg qchrg
     2     2     2     2     0    nproj
     1     1           extension_switch
   0                         2.1242843612363E+00 -4.0575892500385E-01
     1  0.0000000000000E+00  2.1104229475100E-12  1.6866646967983E-12
     2  1.0000000000000E-02  3.7902994782763E-02 -2.5670234663797E-03
     3  2.0000000000000E-02  7.5773954812854E-02 -5.1209565224565E-03
     4  3.0000000000000E-02  1.1358086263129E-01 -7.6487317264976E-03
     5  4.0000000000000E-02  1.5129173544073E-01 -1.0137327493148E-02
     6  5.0000000000000E-02  1.8887464262154E-01 -1.2573790820132E-02
     7  6.0000000000000E-02  2.2629772346853E-01 -1.4945259774373E-02
     8  7.0000000000000E-02  2.6352920521958E-01 -1.7238985659306E-02
     9  8.0000000000000E-02  3.0053742144516E-01 -1.9442354786858E-02
    10  9.0000000000000E-02  3.3729083086506E-01 -2.1542909779665E-02
    11  1.0000000000000E-01  3.7375803665569E-01 -2.3528370331556E-02
    12  1.1000000000000E-01  4.0990780630761E-01 -2.5386653357221E-02
    13  1.2000000000000E-01  4.4570909208900E-01 -2.7105892465214E-02
    14  1.3000000000000E-01  4.8113105216617E-01 -2.8674456691990E-02
    15  1.4000000000000E-01  5.1614307242743E-01 -3.0080968438632E-02
    16  1.5000000000000E-01  5.5071478905123E-01 -3.1314320556102E-02
    17  1.6000000000000E-01  5.8481611185386E-01 -3.2363692529389E-02
    18  1.7000000000000E-01  6.1841724844598E-01 -3.3218565715686E-02
    19  1.8000000000000E-01  6.5148872922079E-01 -3.3868737596735E-02
    20  1.9000000000000E-01  6.8400143319033E-01 -3.4304335010721E-02
    21  2.0000000000000E-01  7.1592661467916E-01 -3.4515826334481E-02
    22  2.1000000000000E-01  7.4723593087783E-01 -3.4494032592382E-02
    23  2.2000000000000E-01  7.7790147025123E-01 -3.4230137473896E-02
    24  2.3000000000000E-01  8.0789578178945E-01 -3.3715696247695E-02
    25  2.4000000000000E-01  8.3719190508135E-01 -3.2942643565938E-02
    26  2.5000000000000E-01  8.6576340118330E-01 -3.1903300158307E-02
    27  2.6000000000000E-01  8.9358438424812E-01 -3.0590378421226E-02
    28  2.7000000000000E-01  9.2062955387146E-01 -2.8996986913580E-02
    29  2.8000000000000E-01  9.4687422810542E-01 -2.7116633775991E-02
    30  2.9000000000000E-01  9.7229437708163E-01 -2.4943229096463E-02
    31  3.0000000000000E-01  9.9686665717871E-01 -2.2471086250723E-02
    32  3.1000000000000E-01  1.0205684456618E+00 -1.9694922251035E-02
    33  3.2000000000000E-01  1.0433778757150E+00 -1.6609857142462E-02
    34  3.3000000000000E-01  1.0652738717802E+00 -1.3211412490568E-02
    35  3.4000000000000E-01  1.0862361851105E+00 -9.4955090092797E-03
    36  3.5000000000000E-01  1.1062454294386E+00 -5.4584633821525E-03
    37  3.6000000000000E-01  1.1252831166570E+00 -1.0969843344295E-03
    38  3.7000000000000E-01  1.1433316923976E+00  3.5918319828877E-03
    39  3.8000000000000E-01  1.1603745713989E+00  8.6105072321748E-03
    40  3.9000000000000E-01  1.1763961725382E+00  1.3961186683691E-02
    41  4.0000000000000E-01  1.1913819534065E+00  1.9645645494849E-02
    42  4.1000000000000E-01  1.2053184442990E+00  2.5665295401325E-02
    43  4.2000000000000E-01  1.2181932814893E+00  3.2021191745212E-02
    44  4.3000000000000E-01  1.2299952396558E+00  3.8714040763976E-02
    45  4.4000000000000E-01  1.2407142633234E+00  4.5744207062938E-02
    46  4.5000000000000E-01  1.2503414971865E+00  5.3111721193558E-02
    47  4.6000000000000E-01  1.2588693151728E+00  6.0816287259654E-02
    48  4.7000000000000E-01  1.2662913481128E+00  6.8857290474202E-02
    49  4.8000000000000E-01  1.2726025098769E+00  7.7233804590197E-02
    50  4.9000000000000E-01  1.2777990218437E+00  8.5944599130467E-02
    51  5.0000000000000E-01  1.2818784355653E+00  9.4988146343245E-02
    52  5.1000000000000E-01  1.2848396534976E+00  1.0436262781255E-01
    53  5.2000000000000E-01  1.2866829476655E+00  1.1406594065530E-01
    54  5.3000000000000E-01  1.2874099761384E+00  1.2409570324040E-01
    55  5.4000000000000E-01  1.2870237971934E+00  1.3444926036853E-01
    56  5.5000000000000E-01  1.2855288810502E+00  1.4512368785586E-01
    57  5.6000000000000E-01  1.2829311190655E+00  1.5611579646904E-01
    58  5.7000000000000E-01  1.2792378302831E+00  1.6742213516423E-01
    59  5.8000000000000E-01  1.2744577652386E+00  1.7903899358774E-01
    60  5.9000000000000E-01  1.2686011069294E+00  1.9096240380199E-01
    61  6.0000000000000E-01  1.2616794688639E+00  2.0318814120616E-01
    62  6.1000000000000E-01  1.2537058901161E+00  2.1571172462726E-01
    63  6.2000000000000E-01  1.2446948273156E+00  2.2852841556400E-01
    64  6.3000000000000E-01  1.2346621435182E+00  2.4163321657244E-01
    65  6.4000000000000E-01  1.2236250939055E+00  2.5502086878951E-01
    66  6.5000000000000E-01  1.2116023082760E+00  2.6868584859743E-01
    67  6.6000000000000E-01  1.1986137702992E+00  2.8262236343961E-01
    68  6.7000000000000E-01  1.1846807935146E+00  2.9682434680560E-01
    69  6.8000000000000E-01  1.1698259940677E+00  3.1128545241029E-01
    70  6.9000000000000E-01  1.1540732601874E+00  3.2599904759997E-01
    71  7.0000000000000E-01  1.1374477184204E+00  3.4095820602494E-01
    72  7.1000000000000E-01  1.1199756966474E+00  3.5615569962611E-01
    73  7.2000000000000E-01  1.1016846839207E+00  3.7158398998981E-01
    74  7.3000000000000E-01  1.0826032871712E+00  3.8723521913224E-01
    75  7.4000000000000E-01  1.0627611848473E+00  4.0310119978193E-01
    76  7.5000000000000E-01  1.0421890775561E+00  4.1917340523500E-01
    77  7.6000000000000E-01  1.0209186357933E+00  4.3544295886439E-01
    78  7.7000000000000E-01  9.9898244485446E-01  4.5190062337047E-01
    79  7.8000000000000E-01  9.7641394703642E-01  4.6853678986578E-01
    80  7.9000000000000E-01  9.5324738124388E-01  4.8534146689219E-01
    81  8.0000000000000E-01  9.2951772013081E-01  5.0230426947369E-01
    82  8.1000000000000E-01  9.0526060491402E-01  5.1941440831207E-01
    83  8.2000000000000E-01  8.8051227800752E-01  5.3666067923728E-01
    84  8.3000000000000E-01  8.5530951363555E-01  5.5403145302707E-01
    85  8.4000000000000E-01  8.2968954659122E-01  5.7151466571383E-01
    86  8.5000000000000E-01  8.0368999931687E-01  5.8909780949867E-01
    87  8.6000000000000E-01  7.7734880748986E-01  6.0676792439460E-01
    88  8.7000000000000E-01  7.5070414430575E-01  6.2451159072152E-01
    89  8.8000000000000E-01  7.2379434365759E-01  6.4231492257671E-01
    90  8.9000000000000E-01  6.9665782241656E-01  6.6016356240376E-01
    91  9.0000000000000E-01  6.6933300202521E-01  6.7804267678257E-01
    92  9.1000000000000E-01  6.4185822961972E-01  6.9593695356116E-01
    93  9.2000000000000E-01  6.1427169890183E-01  7.1383060044826E-01
    94  9.3000000000000E-01  5.8661137098540E-01  7.3170734518238E-01
    95  9.4000000000000E-01  5.5891489544510E-01  7.4955043739003E-01
    96  9.5000000000000E-01  5.3121953179751E-01  7.6734265224128E-01
    97  9.6000000000000E-01  5.0356207164620E-01  7.8506629600597E-01
    98  9.7000000000000E-01  4.7597876172325E-01  8.0270321360881E-01
    99  9.8000000000000E-01  4.4850522805975E-01  8.2023479827496E-01
   100  9.9000000000000E-01  4.2117640151704E-01  8.3764200335133E-01
   101  1.0000000000000E+00  3.9402644490884E-01  8.5490535638135E-01
   102  1.0100000000000E+00  3.6708868194224E-01  8.7200497550295E-01
   103  1.0200000000000E+00  3.4039552820222E-01  8.8892058823132E-01
   104  1.0300000000000E+00  3.1397842440081E-01  9.0563155267863E-01
   105  1.0400000000000E+00  2.8786777210689E-01  9.2211688125370E-01
   106  1.0500000000000E+00  2.6209287216772E-01  9.3835526687455E-01
   107  1.0600000000000E+00  2.3668186602682E-01  9.5432511171636E-01
   108  1.0700000000000E+00  2.1166168013593E-01  9.7000455850668E-01
   109  1.0800000000000E+00  1.8705797365151E-01  9.8537152436869E-01
   110  1.0900000000000E+00  1.6289508959759E-01  1.0004037372016E+00
   111  1.1000000000000E+00  1.3919600966803E-01  1.0150787745760E+00
   112  1.1100000000000E+00  1.1598231283168E-01  1.0293741051102E+00
   113  1.1200000000000E+00  9.3274137893653E-02  1.0432671322807E+00
   114  1.1300000000000E+00  7.1090150155113E-02  1.0567352406089E+00
   115  1.1400000000000E+00  4.9447512302718E-02  1.0697558441531E+00
   116  1.1500000000000E+00  2.8361859646885E-02  1.0823064372236E+00
   117  1.1600000000000E+00  7.8472798157347E-03  1.0943646472246E+00
   118  1.1700000000000E+00 -1.2083703001388E-02  1.1059082895171E+00
   119  1.1800000000000E+00 -3.1420139180061E-02  1.1169154241820E+00
   120  1.1900000000000E+00 -5.0152660089652E-02  1.1273644145539E+00
   121  1.2000000000000E+00 -6.8273479771929E-02  1.1372339873822E+00
   122  1.2100000000000E+00 -8.5776391830825E-02  1.1465032944644E+00
   123  1.2200000000000E+00 -1.0265676150946E-01  1.1551519755892E+00
   124  1.2300000000000E+00 -1.1891151294539E-01  1.1631602226103E+00
   125  1.2400000000000E+00 -1.3453911161027E-01  1.1705088444678E+00
   126  1.2500000000000E+00 -1.4953954195534E-01  1.1771793329595E+00
   127  1.2600000000000E+00 -1.6391428029971E-01  1.1831539290573E+00
   128  1.2700000000000E+00 -1.7766626301398E-01  1.1884156895552E+00
   129  1.2800000000000E+00 -1.9079985006734E-01  1.1929485538256E+00
   130  1.2900000000000E+00 -2.0332078402207E-01  1.1967374104550E+00
   131  1.3000000000000E+00 -2.1523614457495E-01  1.1997681635203E+00
   132  1.3100000000000E+00 -2.2655429876105E-01  1.2020277982634E+00
   133  1.3200000000000E+00 -2.3728484695052E-01  1.2035044459152E+00
   134  1.3300000000000E+00 -2.4743856478499E-01  1.2041874474120E+00
   135  1.3400000000000E+00 -2.5702734121535E-01  1.2040674157480E+00
   136  1.3500000000000E+00 -2.6606411281782E-01  1.2031362967009E+00
   137  1.3600000000000E+00 -2.7456279458054E-01  1.2013874276632E+00
   138  1.3700000000000E+00 -2.8253820736732E-01  1.1988155943145E+00
   139  1.3800000000000E+00 -2.9000600228018E-01  1.1954170848636E+00
   140  1.3900000000000E+00 -2.9698258215605E-01  1.1911897415915E+00
   141  1.4000000000000E+00 -3.0348502044742E-01  1.1861330094266E+00
   142  1.4100000000000E+00 -3.0953097774973E-01  1.1802479812821E+00
   143  1.4200000000000E+00 -3.1513861625198E-01  1.1735374398903E+00
   144  1.4300000000000E+00 -3.2032651239936E-01  1.1660058958689E+00
   145  1.4400000000000E+00 -3.2511356806907E-01  1.1576596217584E+00
   146  1.4500000000000E+00 -3.2951892057223E-01  1.1485066817746E+00
   147  1.4600000000000E+00 -3.3356185180609E-01  1.1385569570234E+00
   148  1.4700000000000E+00 -3.3726169689103E-01  1.1278221659324E+00
   149  1.4800000000000E+00 -3.4063775263724E-01  1.1163158796605E+00
   150  1.4900000000000E+00 -3.4370918619492E-01  1.1040535322519E+00
   151  1.5000000000000E+00 -3.4649494425060E-01  1.0910524253112E+00
   152  1.5100000000000E+00 -3.4901366314002E-01  1.0773317269846E+00
   153  1.5200000000000E+00 -3.5128358025501E-01  1.0629124650418E+00
   154  1.5300000000000E+00 -3.5332244712780E-01  1.0478175138629E+00
   155  1.5400000000000E+00 -3.5514744458179E-01  1.0320715751480E+00
   156  1.5500000000000E+00 -3.5677510034159E-01  1.0157011521769E+00
   157  1.5600000000000E+00 -3.5822120949879E-01  9.9873451746162E-01
   158  1.5700000000000E+00 -3.5950075823171E-01  9.8120167364668E-01
   159  1.5800000000000E+00 -3.6062785117851E-01  9.6313430752748E-01
   160  1.5900000000000E+00 -3.6161564286257E-01  9.4456573707274E-01
   161  1.6000000000000E+00 -3.6247627356761E-01  9.2553085135348E-01
   162  1.6100000000000E+00 -3.6322081005675E-01  9.0606604329852E-01
   163  1.6200000000000E+00 -3.6385919152549E-01  8.8620913521490E-01
   164  1.6300000000000E+00 -3.6440018117221E-01  8.6599929703126E-01
   165  1.6400000000000E+00 -3.6485132376232E-01  8.4547695724278E-01
   166  1.6500000000000E+00 -3.6521890955250E-01  8.2468370655804E-01
   167  1.6600000000000E+00 -3.6550794493046E-01  8.0366219427087E-01
   168  1.6700000000000E+00 -3.6572213011185E-01  7.8245601740473E-01
   169  1.6800000000000E+00 -3.6586384422130E-01  7.6110960270226E-01
   170  1.6900000000000E+00 -3.6593413806652E-01  7.3966808155968E-01
   171  1.7000000000000E+00 -3.6593273489507E-01  7.1817715803379E-01
   172  1.7100000000000E+00 -3.6585803940103E-01  6.9668297007945E-01
   173  1.7200000000000E+00 -3.6570715522437E-01  6.7523194420627E-01
   174  1.7300000000000E+00 -3.6547591115848E-01  6.5387064377705E-01
   175  1.7400000000000E+00 -3.6515889625156E-01  6.3264561120490E-01
   176  1.7500000000000E+00 -3.6474950395450E-01  6.1160320434307E-01
   177  1.7600000000000E+00 -3.6423998543239E-01  5.9078942740048E-01
   178  1.7700000000000E+00 -3.6362151211767E-01  5.7024975675688E-01
   179  1.7800000000000E+00 -3.6288424754104E-01  5.5002896209477E-01
   180  1.7900000000000E+00 -3.6201742843046E-01  5.3017092331116E-01
   181  1.8000000000000E+00 -3.6100945501997E-01  5.1071844372034E-01
   182  1.8100000000000E+00 -3.5984799045702E-01  4.9171306010963E-01
   183  1.8200000000000E+00 -3.5852006914083E-01  4.7319485026412E-01
   184  1.8300000000000E+00 -3.5701221376407E-01  4.5520223863253E-01
   185  1.8400000000000E+00 -3.5531056076552E-01  4.3777180086675E-01
   186  1.8500000000000E+00 -3.5340099383302E-01  4.2093806803002E-01
   187  1.8600000000000E+00 -3.5126928502321E-01  4.0473333133568E-01
   188  1.8700000000000E+00 -3.4890124298697E-01  3.8918744834822E-01
   189  1.8800000000000E+00 -3.4628286770773E-01  3.7432765165229E-01
   190  1.8900000000000E+00 -3.4340051107319E-01  3.6017836107292E-01
   191  1.9000000000000E+00 -3.4024104250820E-01  3.4676100061356E-01
   192  1.9100000000000E+00 -3.3679201880269E-01  3.3409382136149E-01
   193  1.9200000000000E+00 -3.3304185716303E-01  3.2219173170524E-01
   194  1.9300000000000E+00 -3.2898001041035E-01  3.1106613630116E-01
   195  1.9400000000000E+00 -3.2459714313566E-01  3.0072478532814E-01
   196  1.9500000000000E+00 -3.1988530750324E-01  2.9117163567465E-01
   197  1.9600000000000E+00 -3.1483811726919E-01  2.8240672581383E-01
   198  1.9700000000000E+00 -3.0945091845177E-01  2.7442606623860E-01
   199  1.9800000000000E+00 -3.0372095495174E-01  2.6722154745314E-01
   200  1.9900000000000E+00 -2.9764752728300E-01  2.6078086764098E-01
   201  2.0000000000000E+00 -2.9123214241637E-01  2.5508748227206E-01
   202  2.0100000000000E+00 -2.8447865258853E-01  2.5012057804756E-01
   203  2.0200000000000E+00 -2.7739338076209E-01  2.4585507373236E-01
   204  2.0300000000000E+00 -2.6998523025349E-01  2.4226165057940E-01
   205  2.0400000000000E+00 -2.6226577585965E-01  2.3930681522019E-01
   206  2.0500000000000E+00 -2.5424933364483E-01  2.3695299805215E-01
   207  2.0600000000000E+00 -2.4595300633382E-01  2.3515869035177E-01
   208  2.0700000000000E+00 -2.3739670106909E-01  2.3387862351830E-01
   209  2.0800000000000E+00 -2.2860311607427E-01  2.3306399405303E-01
   210  2.0900000000000E+00 -2.1959769254149E-01  2.3266273809009E-01
   211  2.1000000000000E+00 -2.1040852783887E-01  2.3261985950285E-01
   212  2.1100000000000E+00 -2.0106624589272E-01  2.3287781583875E-01
   213  2.1200000000000E+00 -1.9160382034162E-01  2.3337696657977E-01
   214  2.1300000000000E+00 -1.8205634581228E-01  2.3405608846180E-01
   215  2.1400000000000E+00 -1.7246075238129E-01  2.3485296286028E-01
   216  2.1500000000000E+00 -1.6285545802651E-01  2.3570504050004E-01
   217  2.1600000000000E+00 -1.5327995356324E-01  2.3655018904528E-01
   218  2.1700000000000E+00 -1.4377431425299E-01  2.3732752942474E-01
   219  2.1800000000000E+00 -1.3437863196772E-01  2.3797836704342E-01
   220  2.1900000000000E+00 -1.2513236143186E-01  2.3844722438596E-01
   221  2.2000000000000E+00 -1.1607357378678E-01  2.3868298178868E-01
   222  2.2100000000000E+00 -1.0723810996830E-01  2.3864013413695E-01
   223  2.2200000000000E+00 -9.8658626560463E-02  2.3828017070819E-01
   224  2.2300000000000E+00 -9.0363513255236E-02  2.3757310764436E-01
   225  2.2400000000000E+00 -8.2375844388495E-02  2.3649888871192E-01
   226  2.2500000000000E+00 -7.4711563164157E-02  2.3505003743203E-01
   227  2.2600000000000E+00 -6.7379256905404E-02  2.3323142913355E-01
   228  2.2700000000000E+00 -6.0382643981825E-02  2.3105528739654E-01
   229  2.2800000000000E+00 -5.3723903120282E-02  2.2853512044011E-01
   230  2.2900000000000E+00 -4.7404481038043E-02  2.2568426784083E-01
   231  2.3000000000000E+00 -4.1424743273587E-02  2.2251656232226E-01
   232  2.3100000000000E+00 -3.5784093938091E-02  2.1904613019848E-01
   233  2.3200000000000E+00 -3.0480986896825E-02  2.1528739801336E-01
   234  2.3300000000000E+00 -2.5512944444411E-02  2.1125508737949E-01
   235  2.3400000000000E+00 -2.0876579930656E-02  2.0696420555276E-01
   236  2.3500000000000E+00 -1.6567623213635E-02  2.0243003371442E-01
   237  2.3600000000000E+00 -1.2580948722028E-02  1.9766811328179E-01
   238  2.3700000000000E+00 -8.9106060806563E-03  1.9269423024890E-01
   239  2.3800000000000E+00 -5.5498532368957E-03  1.8752439757744E-01
   240  2.3900000000000E+00 -2.4911920079758E-03  1.8217483568235E-01
   241  2.4000000000000E+00  2.7359403141721E-04  1.7666195104475E-01
   242  2.4100000000000E+00  2.7533994187894E-03  1.7100231300797E-01
   243  2.4200000000000E+00  4.9577545377404E-03  1.6521262882124E-01
   244  2.4300000000000E+00  6.8967813363972E-03  1.5930971700819E-01
   245  2.4400000000000E+00  8.5811471556197E-03  1.5331047913920E-01
   246  2.4500000000000E+00  1.0022016799698E-02  1.4723187009372E-01
   247  2.4600000000000E+00  1.1231002997645E-02  1.4109086691788E-01
   248  2.4700000000000E+00  1.2220115411480E-02  1.3490443638783E-01
   249  2.4800000000000E+00  1.3001708354000E-02  1.2868950139664E-01
   250  2.4900000000000E+00  1.3588427374977E-02  1.2246290627410E-01
   251  2.5000000000000E+00  1.3993154901455E-02  1.1624138118301E-01
   252  2.5100000000000E+00  1.4228955114147E-02  1.1004150572920E-01
   253  2.5200000000000E+00  1.4309018236085E-02  1.0387967191213E-01
   254  2.5300000000000E+00  1.4246604435278E-02  9.7772046576667E-02
   255  2.5400000000000E+00  1.4054987535405E-02  9.1734533516163E-02
   256  2.5500000000000E+00  1.3747398725245E-02  8.5782735370378E-02
   257  2.5600000000000E+00  1.3336970472789E-02  7.9931915483503E-02
   258  2.5700000000000E+00  1.2836680843258E-02  7.4196959879144E-02
   259  2.5800000000000E+00  1.2259298426330E-02  6.8592339516403E-02
   260  2.5900000000000E+00  1.1617328071160E-02  6.3132072984888E-02
   261  2.6000000000000E+00  1.0922957628330E-02  5.7829689798321E-02
   262  2.6100000000000E+00  1.0188005899958E-02  5.2698194449369E-02
   263  2.6200000000000E+00  9.4238728961307E-03  4.7750032356853E-02
   264  2.6300000000000E+00  8.6414852765518E-03  4.2997050043558E-02
   265  2.6400000000000E+00  7.8512604078728E-03  3.8450474468390E-02
   266  2.6500000000000E+00  7.0630552542373E-03  3.4120874747746E-02
   267  2.6600000000000E+00  6.2861127389629E-03  3.0018124978178E-02
   268  2.6700000000000E+00  5.5289262490262E-03  2.6151268973511E-02
   269  2.6800000000000E+00  4.7989305490388E-03  2.2528192552125E-02
   270  2.6900000000000E+00  4.1031561978291E-03  1.9156344181270E-02
   271  2.7000000000000E+00  3.4483470346398E-03  1.6042880652342E-02
   272  2.7100000000000E+00  2.8403685865565E-03  1.3194060125317E-02
   273  2.7200000000000E+00  2.2842265929517E-03  1.0615270386242E-02
   274  2.7300000000000E+00  1.7840834836802E-03  8.3110518586506E-03
   275  2.7400000000000E+00  1.3432202992932E-03  6.2850656534084E-03
   276  2.7500000000000E+00  9.6402615319796E-04  4.5400884614325E-03
   277  2.7600000000000E+00  6.4807023961982E-04  3.0784607806681E-03
   278  2.7700000000000E+00  3.9577548779337E-04  1.9003946760307E-03
   279  2.7800000000000E+00  2.0577723398491E-04  1.0007537348649E-03
   280  2.7900000000000E+00  7.9826168300308E-05  3.9430571317693E-04
   281  2.8000000000000E+00  1.6615068915596E-05  8.3609270824148E-05
   282  2.8100000000000E+00 -2.8851809393591E-06 -1.4740277628320E-05
   283  2.8200000000000E+00 -1.7266634478937E-06 -8.8843257070048E-06
   284  2.83  0.  0.
   285  2.84  0.  0.
   286  2.85 -0. -0.
   287  2.86 -0. -0.
   288  2.87 -0. -0.
   289  2.88  0.  0.
   290  2.89  0.  0.
   291  2.90  0.  0.
   292  2.91  0.  0.
   293  2.92  0.  0.
   294  2.93  0.  0.
   295  2.94  0.  0.
   296  2.95  0.  0.
   297  2.96  0.  0.
   298  2.97  0.  0.
   299  2.98  0.  0.
   300  2.99  0.  0.
   301  3.00  0.  0.
   302  3.01  0.  0.
   303  3.02  0.  0.
   304  3.03  0.  0.
   305  3.04  0.  0.
   306  3.05  0.  0.
   307  3.06  0.  0.
   308  3.07  0.  0.
   309  3.08  0.  0.
   310  3.09  0.  0.
   311  3.10  0.  0.
   312  3.11  0.  0.
   313  3.12  0.  0.
   314  3.13  0.  0.
   315  3.14  0.  0.
   316  3.15  0.  0.
   317  3.16  0.  0.
   318  3.17  0.  0.
   319  3.18  0.  0.
   320  3.19  0.  0.
   321  3.20  0.  0.
   322  3.21  0.  0.
   323  3.22  0.  0.
   324  3.23  0.  0.
   325  3.24  0.  0.
   326  3.25  0.  0.
   327  3.26  0.  0.
   328  3.27  0.  0.
   329  3.28  0.  0.
   330  3.29  0.  0.
   331  3.30  0.  0.
   332  3.31  0.  0.
   333  3.32  0.  0.
   334  3.33  0.  0.
   335  3.34  0.  0.
   336  3.35  0.  0.
   337  3.36  0.  0.
   338  3.37  0.  0.
   339  3.38  0.  0.
   340  3.39  0.  0.
   341  3.40  0.  0.
   342  3.41  0.  0.
   343  3.42  0.  0.
   344  3.43  0.  0.
   345  3.44  0.  0.
   346  3.45  0.  0.
   347  3.46  0.  0.
   348  3.47  0.  0.
   349  3.48  0.  0.
   350  3.49  0.  0.
   351  3.50  0.  0.
   352  3.51  0.  0.
   353  3.52  0.  0.
   354  3.53  0.  0.
   355  3.54  0.  0.
   356  3.55  0.  0.
   357  3.56  0.  0.
   358  3.57  0.  0.
   359  3.58  0.  0.
   360  3.59  0.  0.
   361  3.60  0.  0.
   362  3.61  0.  0.
   363  3.62  0.  0.
   364  3.63  0.  0.
   365  3.64  0.  0.
   366  3.65  0.  0.
   367  3.66  0.  0.
   368  3.67  0.  0.
   369  3.68  0.  0.
   370  3.69  0.  0.
   371  3.70  0.  0.
   372  3.71  0.  0.
   373  3.72  0.  0.
   374  3.73  0.  0.
   375  3.74  0.  0.
   376  3.75  0.  0.
   377  3.76  0.  0.
   378  3.77  0.  0.
   379  3.78  0.  0.
   380  3.79  0.  0.
   381  3.80  0.  0.
   382  3.81  0.  0.
   383  3.82  0.  0.
   384  3.83  0.  0.
   385  3.84  0.  0.
   386  3.85  0.  0.
   387  3.86  0.  0.
   388  3.87  0.  0.
   389  3.88  0.  0.
   390  3.89  0.  0.
   391  3.90  0.  0.
   392  3.91  0.  0.
   393  3.92  0.  0.
   394  3.93  0.  0.
   395  3.94  0.  0.
   396  3.95  0.  0.
   397  3.96  0.  0.
   398  3.97  0.  0.
   399  3.98  0.  0.
   400  3.99  0.  0.
   401  4.00  0.  0.
   402  4.01  0.  0.
   403  4.02  0.  0.
   404  4.03  0.  0.
   405  4.04  0.  0.
   406  4.05  0.  0.
   407  4.06  0.  0.
   408  4.07  0.  0.
   409  4.08  0.  0.
   410  4.09  0.  0.
   411  4.10  0.  0.
   412  4.11  0.  0.
   413  4.12  0.  0.
   414  4.13  0.  0.
   415  4.14  0.  0.
   416  4.15  0.  0.
   417  4.16  0.  0.
   418  4.17  0.  0.
   419  4.18  0.  0.
   420  4.19  0.  0.
   421  4.20  0.  0.
   422  4.21  0.  0.
   423  4.22  0.  0.
   424  4.23  0.  0.
   425  4.24  0.  0.
   426  4.25  0.  0.
   427  4.26  0.  0.
   428  4.27  0.  0.
   429  4.28  0.  0.
   430  4.29  0.  0.
   431  4.30  0.  0.
   432  4.31  0.  0.
   433  4.32  0.  0.
   434  4.33  0.  0.
   435  4.34  0.  0.
   436  4.35  0.  0.
   437  4.36  0.  0.
   438  4.37  0.  0.
   439  4.38  0.  0.
   440  4.39  0.  0.
   441  4.40  0.  0.
   442  4.41  0.  0.
   443  4.42  0.  0.
   444  4.43  0.  0.
   445  4.44  0.  0.
   446  4.45  0.  0.
   447  4.46  0.  0.
   448  4.47  0.  0.
   449  4.48  0.  0.
   450  4.49  0.  0.
   451  4.50  0.  0.
   452  4.51  0.  0.
   453  4.52  0.  0.
   454  4.53  0.  0.
   455  4.54  0.  0.
   456  4.55  0.  0.
   457  4.56  0.  0.
   458  4.57  0.  0.
   459  4.58  0.  0.
   460  4.59  0.  0.
   461  4.60  0.  0.
   462  4.61  0.  0.
   463  4.62  0.  0.
   464  4.63  0.  0.
   465  4.64  0.  0.
   466  4.65  0.  0.
   467  4.66  0.  0.
   468  4.67  0.  0.
   469  4.68  0.  0.
   470  4.69  0.  0.
   471  4.70  0.  0.
   472  4.71  0.  0.
   473  4.72  0.  0.
   474  4.73  0.  0.
   475  4.74  0.  0.
   476  4.75  0.  0.
   477  4.76  0.  0.
   478  4.77  0.  0.
   479  4.78  0.  0.
   480  4.79  0.  0.
   481  4.80  0.  0.
   482  4.81  0.  0.
   483  4.82  0.  0.
   484  4.83  0.  0.
   485  4.84  0.  0.
   486  4.85  0.  0.
   487  4.86  0.  0.
   488  4.87  0.  0.
   489  4.88  0.  0.
   490  4.89  0.  0.
   491  4.90  0.  0.
   492  4.91  0.  0.
   493  4.92  0.  0.
   494  4.93  0.  0.
   495  4.94  0.  0.
   496  4.95  0.  0.
   497  4.96  0.  0.
   498  4.97  0.  0.
   499  4.98  0.  0.
   500  4.99  0.  0.
   501  5.00  0.  0.
   502  5.01  0.  0.
   503  5.02  0.  0.
   504  5.03  0.  0.
   505  5.04  0.  0.
   506  5.05  0.  0.
   507  5.06  0.  0.
   508  5.07  0.  0.
   509  5.08  0.  0.
   510  5.09  0.  0.
   511  5.10  0.  0.
   512  5.11  0.  0.
   513  5.12  0.  0.
   514  5.13  0.  0.
   515  5.14  0.  0.
   516  5.15  0.  0.
   517  5.16  0.  0.
   518  5.17  0.  0.
   519  5.18  0.  0.
   520  5.19  0.  0.
   521  5.20  0.  0.
   522  5.21  0.  0.
   523  5.22  0.  0.
   524  5.23  0.  0.
   525  5.24  0.  0.
   526  5.25  0.  0.
   527  5.26  0.  0.
   528  5.27  0.  0.
   529  5.28  0.  0.
   530  5.29  0.  0.
   531  5.30  0.  0.
   532  5.31  0.  0.
   533  5.32  0.  0.
   534  5.33  0.  0.
   535  5.34  0.  0.
   536  5.35  0.  0.
   537  5.36  0.  0.
   538  5.37  0.  0.
   539  5.38  0.  0.
   540  5.39  0.  0.
   541  5.40  0.  0.
   542  5.41  0.  0.
   543  5.42  0.  0.
   544  5.43  0.  0.
   545  5.44  0.  0.
   546  5.45  0.  0.
   547  5.46  0.  0.
   548  5.47  0.  0.
   549  5.48  0.  0.
   550  5.49  0.  0.
   551  5.50  0.  0.
   552  5.51  0.  0.
   553  5.52  0.  0.
   554  5.53  0.  0.
   555  5.54  0.  0.
   556  5.55  0.  0.
   557  5.56  0.  0.
   558  5.57  0.  0.
   559  5.58  0.  0.
   560  5.59  0.  0.
   561  5.60  0.  0.
   562  5.61  0.  0.
   563  5.62  0.  0.
   564  5.63  0.  0.
   565  5.64  0.  0.
   566  5.65  0.  0.
   567  5.66  0.  0.
   568  5.67  0.  0.
   569  5.68  0.  0.
   570  5.69  0.  0.
   571  5.70  0.  0.
   572  5.71  0.  0.
   573  5.72  0.  0.
   574  5.73  0.  0.
   575  5.74  0.  0.
   576  5.75  0.  0.
   577  5.76  0.  0.
   578  5.77  0.  0.
   579  5.78  0.  0.
   580  5.79  0.  0.
   581  5.80  0.  0.
   582  5.81  0.  0.
   583  5.82  0.  0.
   584  5.83  0.  0.
   585  5.84  0.  0.
   586  5.85  0.  0.
   587  5.86  0.  0.
   588  5.87  0.  0.
   589  5.88  0.  0.
   590  5.89  0.  0.
   591  5.90  0.  0.
   592  5.91  0.  0.
   593  5.92  0.  0.
   594  5.93  0.  0.
   595  5.94  0.  0.
   596  5.95  0.  0.
   597  5.96  0.  0.
   598  5.97  0.  0.
   599  5.98  0.  0.
   600  5.99  0.  0.
   1                         1.5669741308326E+00 -4.8979073354646E-01
     1  0.0000000000000E+00 -2.3536066498520E-10 -4.6186178145891E-11
     2  1.0000000000000E-02  4.6039501342609E-04 -8.3180125928633E-05
     3  2.0000000000000E-02  1.8420653562766E-03 -3.3211780978287E-04
     4  3.0000000000000E-02  4.1464538902686E-03 -7.4500825941737E-04
     5  4.0000000000000E-02  7.3759220242335E-03 -1.3188544287436E-03
     6  5.0000000000000E-02  1.1533685112721E-02 -2.0494833428363E-03
     7  6.0000000000000E-02  1.6623722889699E-02 -2.9315687815207E-03
     8  7.0000000000000E-02  2.2650665804144E-02 -3.9586601516249E-03
     9  8.0000000000000E-02  2.9619658359655E-02 -5.1232173318959E-03
    10  9.0000000000000E-02  3.7536200786134E-02 -6.4166512302797E-03
    11  1.0000000000000E-01  4.6405970586701E-02 -7.8293697510349E-03
    12  1.1000000000000E-01  5.6234625704861E-02 -9.3508288294521E-03
    13  1.2000000000000E-01  6.7027591244525E-02 -1.0969588155039E-02
    14  1.3000000000000E-01  7.8789831846700E-02 -1.2673371170285E-02
    15  1.4000000000000E-01  9.1525611980204E-02 -1.4449128901726E-02
    16  1.5000000000000E-01  1.0523824653840E-01 -1.6283107153354E-02
    17  1.6000000000000E-01  1.1992984424843E-01 -1.8160916569537E-02
    18  1.7000000000000E-01  1.3560104649261E-01 -2.0067605055914E-02
    19  1.8000000000000E-01  1.5225076421295E-01 -2.1987732032141E-02
    20  1.9000000000000E-01  1.6987591561840E-01 -2.3905443980223E-02
    21  2.0000000000000E-01  1.8847116743957E-01 -2.5804550746416E-02
    22  2.1000000000000E-01  2.0802868247792E-01 -2.7668602053409E-02
    23  2.2000000000000E-01  2.2853787617424E-01 -2.9480963682809E-02
    24  2.3000000000000E-01  2.4998518487645E-01 -3.1224892795637E-02
    25  2.4000000000000E-01  2.7235384841786E-01 -3.2883611870741E-02
    26  2.5000000000000E-01  2.9562370952580E-01 -3.4440380757518E-02
    27  2.6000000000000E-01  3.1977103246698E-01 -3.5878566360028E-02
    28  2.7000000000000E-01  3.4476834320096E-01 -3.7181709494314E-02
    29  2.8000000000000E-01  3.7058429315764E-01 -3.8333588489260E-02
    30  2.9000000000000E-01  3.9718354858034E-01 -3.9318279133502E-02
    31  3.0000000000000E-01  4.2452670718324E-01 -4.0120210606347E-02
    32  3.1000000000000E-01  4.5257024366317E-01 -4.0724217069181E-02
    33  3.2000000000000E-01  4.8126648538172E-01 -4.1115584635077E-02
    34  3.3000000000000E-01  5.1056361929681E-01 -4.1280093477896E-02
    35  3.4000000000000E-01  5.4040573097449E-01 -4.1204054887826E-02
    36  3.5000000000000E-01  5.7073287625418E-01 -4.0874343127502E-02
    37  3.6000000000000E-01  6.0148118587566E-01 -4.0278421991366E-02
    38  3.7000000000000E-01  6.3258300310589E-01 -3.9404366020172E-02
    39  3.8000000000000E-01  6.6396705413070E-01 -3.8240876372275E-02
    40  3.9000000000000E-01  6.9555865070217E-01 -3.6777291402980E-02
    41  4.0000000000000E-01  7.2727992425986E-01 -3.5003592052447E-02
    42  4.1000000000000E-01  7.5905009047488E-01 -3.2910402190999E-02
    43  4.2000000000000E-01  7.9078574290233E-01 -3.0488984117688E-02