Hf    ONCVPSP-4.0.1  r_core=   2.40178   2.33100   2.78921   2.96116
     72.0000     12.0000      210704    zatom,zion,pspd
     8      11   3     4   600     0    pspcod,pspxc,lmax,lloc,mmax,r2well
  5.99000000  5.40000000  0.00000000    rchrg fchrg qchrg
     2     2     2     2     0    nproj
     1     1           extension_switch
   0                         1.8247693266388E+00 -7.6091924740394E-01
     1  0.0000000000000E+00 -2.5398572134350E-12  4.7253867485608E-14
     2  1.0000000000000E-02  4.9633200994336E-02  1.3865576974674E-02
     3  2.0000000000000E-02  9.9190662835133E-02  2.7731708735024E-02
     4  3.0000000000000E-02  1.4859678168991E-01  4.1598941864566E-02
     5  4.0000000000000E-02  1.9777622409166E-01  5.5467806557585E-02
     6  5.0000000000000E-02  2.4665406143056E-01  6.9338808462211E-02
     7  6.0000000000000E-02  2.9515590361829E-01  8.3212420568698E-02
     8  7.0000000000000E-02  3.4320803165211E-01  9.7089075157902E-02
     9  8.0000000000000E-02  3.9073752880841E-01  1.1096915582493E-01
    10  9.0000000000000E-02  4.3767241019853E-01  1.2485298959285E-01
    11  1.0000000000000E-01  4.8394175042369E-01  1.3874083913125E-01
    12  1.1000000000000E-01  5.2947580906985E-01  1.5263289509440E-01
    13  1.2000000000000E-01  5.7420615378864E-01  1.6652926859371E-01
    14  1.3000000000000E-01  6.1806578071588E-01  1.8042998381875E-01
    15  1.4000000000000E-01  6.6098923198540E-01  1.9433497082151E-01
    16  1.5000000000000E-01  7.0291271010247E-01  2.0824405847792E-01
    17  1.6000000000000E-01  7.4377418894841E-01  2.2215696764068E-01
    18  1.7000000000000E-01  7.8351352119569E-01  2.3607330449737E-01
    19  1.8000000000000E-01  8.2207254192097E-01  2.4999255414748E-01
    20  1.9000000000000E-01  8.5939516821219E-01  2.6391407441174E-01
    21  2.0000000000000E-01  8.9542749457514E-01  2.7783708988707E-01
    22  2.1000000000000E-01  9.3011788395417E-01  2.9176068626008E-01
    23  2.2000000000000E-01  9.6341705419201E-01  3.0568380489176E-01
    24  2.3000000000000E-01  9.9527815976379E-01  3.1960523768585E-01
    25  2.4000000000000E-01  1.0256568686310E+00  3.3352362225291E-01
    26  2.5000000000000E-01  1.0545114340723E+00  3.4743743738187E-01
    27  2.6000000000000E-01  1.0818027613594E+00  3.6134499883041E-01
    28  2.7000000000000E-01  1.1074944691576E+00  3.7524445544528E-01
    29  2.8000000000000E-01  1.1315529455420E+00  3.8913378562301E-01
    30  2.9000000000000E-01  1.1539473985344E+00  4.0301079412136E-01
    31  3.0000000000000E-01  1.1746499010741E+00  4.1687310923109E-01
    32  3.1000000000000E-01  1.1936354303538E+00  4.3071818031749E-01
    33  3.2000000000000E-01  1.2108819014573E+00  4.4454327574017E-01
    34  3.3000000000000E-01  1.2263701952557E+00  4.5834548115967E-01
    35  3.4000000000000E-01  1.2400841805248E+00  4.7212169823826E-01
    36  3.5000000000000E-01  1.2520107302638E+00  4.8586864374230E-01
    37  3.6000000000000E-01  1.2621397322042E+00  4.9958284905248E-01
    38  3.7000000000000E-01  1.2704640935143E+00  5.1326066008804E-01
    39  3.8000000000000E-01  1.2769797397132E+00  5.2689823765002E-01
    40  3.9000000000000E-01  1.2816856078236E+00  5.4049155818827E-01
    41  4.0000000000000E-01  1.2845836338036E+00  5.5403641499601E-01
    42  4.1000000000000E-01  1.2856787343092E+00  5.6752841983522E-01
    43  4.2000000000000E-01  1.2849787828534E+00  5.8096300499517E-01
    44  4.3000000000000E-01  1.2824945804365E+00  5.9433542578580E-01
    45  4.4000000000000E-01  1.2782398207362E+00  6.0764076346696E-01
    46  4.5000000000000E-01  1.2722310499553E+00  6.2087392861338E-01
    47  4.6000000000000E-01  1.2644876214381E+00  6.3402966491484E-01
    48  4.7000000000000E-01  1.2550316451736E+00  6.4710255340980E-01
    49  4.8000000000000E-01  1.2438879323175E+00  6.6008701715027E-01
    50  4.9000000000000E-01  1.2310839348733E+00  6.7297732629435E-01
    51  5.0000000000000E-01  1.2166496806809E+00  6.8576760362259E-01
    52  5.1000000000000E-01  1.2006177038729E+00  6.9845183047278E-01
    53  5.2000000000000E-01  1.1830229709657E+00  7.1102385308750E-01
    54  5.3000000000000E-01  1.1639028027609E+00  7.2347738936726E-01
    55  5.4000000000000E-01  1.1432967922405E+00  7.3580603602168E-01
    56  5.5000000000000E-01  1.1212467186471E+00  7.4800327610984E-01
    57  5.6000000000000E-01  1.0977964579463E+00  7.6006248696019E-01
    58  5.7000000000000E-01  1.0729918898751E+00  7.7197694845950E-01
    59  5.8000000000000E-01  1.0468808017868E+00  7.8373985169931E-01
    60  5.9000000000000E-01  1.0195127895062E+00  7.9534430796753E-01
    61  6.0000000000000E-01  9.9093915541626E-01  8.0678335807186E-01
    62  6.1000000000000E-01  9.6121280399855E-01  8.1804998198086E-01
    63  6.2000000000000E-01  9.3038813505727E-01  8.2913710876757E-01
    64  6.3000000000000E-01  8.9852093485603E-01  8.4003762683978E-01
    65  6.4000000000000E-01  8.6566826540178E-01  8.5074439444008E-01
    66  6.5000000000000E-01  8.3188835211138E-01  8.6125025039822E-01
    67  6.6000000000000E-01  7.9724047009796E-01  8.7154802511719E-01
    68  6.7000000000000E-01  7.6178482931520E-01  8.8163055177395E-01
    69  6.8000000000000E-01  7.2558245879852E-01  8.9149067771486E-01
    70  6.9000000000000E-01  6.8869509024141E-01  9.0112127602510E-01
    71  7.0000000000000E-01  6.5118504114545E-01  9.1051525725079E-01
    72  7.1000000000000E-01  6.1311509778063E-01  9.1966558125185E-01
    73  7.2000000000000E-01  5.7454839819164E-01  9.2856526916302E-01
    74  7.3000000000000E-01  5.3554831548344E-01  9.3720741543986E-01
    75  7.4000000000000E-01  4.9617834161677E-01  9.4558519996612E-01
    76  7.5000000000000E-01  4.5650197194150E-01  9.5369190019839E-01
    77  7.6000000000000E-01  4.1658259069183E-01  9.6152090332348E-01
    78  7.7000000000000E-01  3.7648335766385E-01  9.6906571840353E-01
    79  7.8000000000000E-01  3.3626709629121E-01  9.7631998848384E-01
    80  7.9000000000000E-01  2.9599618332994E-01  9.8327750263780E-01
    81  8.0000000000000E-01  2.5573244035848E-01  9.8993220792323E-01
    82  8.1000000000000E-01  2.1553702729301E-01  9.9627822122453E-01
    83  8.2000000000000E-01  1.7547033811260E-01  1.0023098409545E+00
    84  8.3000000000000E-01  1.3559189898208E-01  1.0080215585901E+00
    85  8.4000000000000E-01  9.5960268954052E-02  1.0134080700164E+00
    86  8.5000000000000E-01  5.6632943424626E-02  1.0184642866524E+00
    87  8.6000000000000E-01  1.7666260509913E-02  1.0231853463341E+00
    88  8.7000000000000E-01 -2.0884689496886E-02  1.0275666239290E+00
    89  8.8000000000000E-01 -5.8966151435874E-02  1.0316037416564E+00
    90  8.9000000000000E-01 -9.6525789214367E-02  1.0352925790902E+00
    91  9.0000000000000E-01 -1.3351276622858E-01  1.0386292828189E+00
    92  9.1000000000000E-01 -1.6987782214567E-01  1.0416102757397E+00
    93  9.2000000000000E-01 -2.0557334592736E-01  1.0442322659637E+00
    94  9.3000000000000E-01 -2.4055344498503E-01  1.0464922553084E+00
    95  9.4000000000000E-01 -2.7477401036496E-01  1.0483875473583E+00
    96  9.5000000000000E-01 -3.0819277787153E-01  1.0499157550701E+00
    97  9.6000000000000E-01 -3.4076938504486E-01  1.0510748079035E+00
    98  9.7000000000000E-01 -3.7246542391903E-01  1.0518629584587E+00
    99  9.8000000000000E-01 -4.0324448949548E-01  1.0522787886011E+00
   100  9.9000000000000E-01 -4.3307222387600E-01  1.0523212150571E+00
   101  1.0000000000000E+00 -4.6191635600855E-01  1.0519894944644E+00
   102  1.0100000000000E+00 -4.8974673700842E-01  1.0512832278607E+00
   103  1.0200000000000E+00 -5.1653537102635E-01  1.0502023645986E+00
   104  1.0300000000000E+00 -5.4225644164457E-01  1.0487472056725E+00
   105  1.0400000000000E+00 -5.6688633379034E-01  1.0469184064470E+00
   106  1.0500000000000E+00 -5.9040365116600E-01  1.0447169787755E+00
   107  1.0600000000000E+00 -6.1278922920318E-01  1.0421442925017E+00
   108  1.0700000000000E+00 -6.3402614355748E-01  1.0392020763352E+00
   109  1.0800000000000E+00 -6.5409971416895E-01  1.0358924180957E+00
   110  1.0900000000000E+00 -6.7299750492181E-01  1.0322177643209E+00
   111  1.1000000000000E+00 -6.9070931894541E-01  1.0281809192360E+00
   112  1.1100000000000E+00 -7.0722718960664E-01  1.0237850430810E+00
   113  1.1200000000000E+00 -7.2254536725195E-01  1.0190336497982E+00
   114  1.1300000000000E+00 -7.3666030176483E-01  1.0139306040789E+00
   115  1.1400000000000E+00 -7.4957062101262E-01  1.0084801177735E+00
   116  1.1500000000000E+00 -7.6127710526336E-01  1.0026867456695E+00
   117  1.1600000000000E+00 -7.7178265766111E-01  9.9655538064146E-01
   118  1.1700000000000E+00 -7.8109227085484E-01  9.9009124818318E-01
   119  1.1800000000000E+00 -7.8921298988260E-01  9.8329990032811E-01
   120  1.1900000000000E+00 -7.9615387141955E-01  9.7618720897027E-01
   121  1.2000000000000E+00 -8.0192593950413E-01  9.6875935859679E-01
   122  1.2100000000000E+00 -8.0654213786305E-01  9.6102283844535E-01
   123  1.2200000000000E+00 -8.1001727896098E-01  9.5298443410138E-01
   124  1.2300000000000E+00 -8.1236798990678E-01  9.4465121855111E-01
   125  1.2400000000000E+00 -8.1361265535257E-01  9.3603054270776E-01
   126  1.2500000000000E+00 -8.1377135752728E-01  9.2713002542982E-01
   127  1.2600000000000E+00 -8.1286581355060E-01  9.1795754305137E-01
   128  1.2700000000000E+00 -8.1091931017747E-01  9.0852121844563E-01
   129  1.2800000000000E+00 -8.0795663612719E-01  8.9882940964437E-01
   130  1.2900000000000E+00 -8.0400401215491E-01  8.8889069803643E-01
   131  1.3000000000000E+00 -7.9908901902654E-01  8.7871387617029E-01
   132  1.3100000000000E+00 -7.9324052356088E-01  8.6830793518605E-01
   133  1.3200000000000E+00 -7.8648860290592E-01  8.5768205190345E-01
   134  1.3300000000000E+00 -7.7886446721812E-01  8.4684557559338E-01
   135  1.3400000000000E+00 -7.7040038091573E-01  8.3580801446104E-01
   136  1.3500000000000E+00 -7.6112958267913E-01  8.2457902186965E-01
   137  1.3600000000000E+00 -7.5108620437208E-01  8.1316838233441E-01
   138  1.3700000000000E+00 -7.4030518905929E-01  8.0158599731678E-01
   139  1.3800000000000E+00 -7.2882220829628E-01  7.8984187084967E-01
   140  1.3900000000000E+00 -7.1667357886783E-01  7.7794609502484E-01
   141  1.4000000000000E+00 -7.0389617915165E-01  7.6590883537367E-01
   142  1.4100000000000E+00 -6.9052736528349E-01  7.5374031617303E-01
   143  1.4200000000000E+00 -6.7660488729936E-01  7.4145080570823E-01
   144  1.4300000000000E+00 -6.6216680542987E-01  7.2905060152467E-01
   145  1.4400000000000E+00 -6.4725140672029E-01  7.1655001570038E-01
   146  1.4500000000000E+00 -6.3189712214837E-01  7.0395936017109E-01
   147  1.4600000000000E+00 -6.1614244441059E-01  6.9128893213959E-01
   148  1.4700000000000E+00 -6.0002584654468E-01  6.7854899960075E-01
   149  1.4800000000000E+00 -5.8358570155442E-01  6.6574978701325E-01
   150  1.4900000000000E+00 -5.6686020319965E-01  6.5290146114878E-01
   151  1.5000000000000E+00 -5.4988728811133E-01  6.4001411714876E-01
   152  1.5100000000000E+00 -5.3270455938837E-01  6.2709776481825E-01
   153  1.5200000000000E+00 -5.1534921182907E-01  6.1416231518594E-01
   154  1.5300000000000E+00 -4.9785795894597E-01  6.0121756735855E-01
   155  1.5400000000000E+00 -4.8026696190912E-01  5.8827319569686E-01
   156  1.5500000000000E+00 -4.6261176055762E-01  5.7533873734014E-01
   157  1.5600000000000E+00 -4.4492720661496E-01  5.6242358010442E-01
   158  1.5700000000000E+00 -4.2724739923846E-01  5.4953695077937E-01
   159  1.5800000000000E+00 -4.0960562302762E-01  5.3668790384716E-01
   160  1.5900000000000E+00 -3.9203428861083E-01  5.2388531064588E-01
   161  1.6000000000000E+00 -3.7456487592399E-01  5.1113784899870E-01
   162  1.6100000000000E+00 -3.5722788028823E-01  4.9845399332882E-01
   163  1.6200000000000E+00 -3.4005276138808E-01  4.8584200527890E-01
   164  1.6300000000000E+00 -3.2306789524450E-01  4.7330992485248E-01
   165  1.6400000000000E+00 -3.0630052927053E-01  4.6086556209334E-01
   166  1.6500000000000E+00 -2.8977674049058E-01  4.4851648931757E-01
   167  1.6600000000000E+00 -2.7352139699686E-01  4.3627003391155E-01
   168  1.6700000000000E+00 -2.5755812270954E-01  4.2413327170749E-01
   169  1.6800000000000E+00 -2.4190926549934E-01  4.1211302094708E-01
   170  1.6900000000000E+00 -2.2659586872401E-01  4.0021583684172E-01
   171  1.7000000000000E+00 -2.1163764622204E-01  3.8844800673691E-01
   172  1.7100000000000E+00 -1.9705296079932E-01  3.7681554588623E-01
   173  1.7200000000000E+00 -1.8285880623623E-01  3.6532419383941E-01
   174  1.7300000000000E+00 -1.6907079283474E-01  3.5397941144694E-01
   175  1.7400000000000E+00 -1.5570313651678E-01  3.4278637848243E-01
   176  1.7500000000000E+00 -1.4276865147704E-01  3.3174999188232E-01
   177  1.7600000000000E+00 -1.3027874638488E-01  3.2087486460101E-01
   178  1.7700000000000E+00 -1.1824342412189E-01  3.1016532507797E-01
   179  1.7800000000000E+00 -1.0667128503341E-01  2.9962541731194E-01
   180  1.7900000000000E+00 -9.5569533663672E-02  2.8925890153573E-01
   181  1.8000000000000E+00 -8.4943988936314E-02  2.7906925548405E-01
   182  1.8100000000000E+00 -7.4799097733635E-02  2.6905967624479E-01
   183  1.8200000000000E+00 -6.5137951819791E-02  2.5923308268345E-01
   184  1.8300000000000E+00 -5.5962308045089E-02  2.4959211842856E-01
   185  1.8400000000000E+00 -4.7272611760612E-02  2.4013915540500E-01
   186  1.8500000000000E+00 -3.9068023364539E-02  2.3087629790056E-01
   187  1.8600000000000E+00 -3.1346447893849E-02  2.2180538715015E-01
   188  1.8700000000000E+00 -2.4104567567572E-02  2.1292800642071E-01
   189  1.8800000000000E+00 -1.7337877180482E-02  2.0424548657889E-01
   190  1.8900000000000E+00 -1.1040722238939E-02  1.9575891212238E-01
   191  1.9000000000000E+00 -5.2063397237230E-03  1.8746912765493E-01
   192  1.9100000000000E+00  1.7309864188698E-04  1.7937674478404E-01
   193  1.9200000000000E+00  5.1064407469498E-03  1.7148214941943E-01
   194  1.9300000000000E+00  9.6035062048979E-03  1.6378550944969E-01
   195  1.9400000000000E+00  1.3675036362746E-02  1.5628678277361E-01
   196  1.9500000000000E+00  1.7332642352963E-02  1.4898572566204E-01
   197  1.9600000000000E+00  2.0588751338604E-02  1.4188190142568E-01
   198  1.9700000000000E+00  2.3456551107017E-02  1.3497468936335E-01
   199  1.9800000000000E+00  2.5949933171934E-02  1.2826329396491E-01
   200  1.9900000000000E+00  2.8083434547561E-02  1.2174675434290E-01
   201  2.0000000000000E+00  2.9872178362087E-02  1.1542395386597E-01
   202  2.0100000000000E+00  3.1331813481080E-02  1.0929362996751E-01
   203  2.0200000000000E+00  3.2478453314023E-02  1.0335438410236E-01
   204  2.0300000000000E+00  3.3328613979575E-02  9.7604691824285E-02
   205  2.0400000000000E+00  3.3899152006981E-02  9.2042912957108E-02
   206  2.0500000000000E+00  3.4207201752453E-02  8.6667301832051E-02
   207  2.0600000000000E+00  3.4270112710330E-02  8.1476017564128E-02
   208  2.0700000000000E+00  3.4105386899258E-02  7.6467134340431E-02
   209  2.0800000000000E+00  3.3730616503646E-02  7.1638651693382E-02
   210  2.0900000000000E+00  3.3163421950158E-02  6.6988504732265E-02
   211  2.1000000000000E+00  3.2421390597982E-02  6.2514574306661E-02
   212  2.1100000000000E+00  3.1522016220351E-02  5.8214697075754E-02
   213  2.1200000000000E+00  3.0482639452627E-02  5.4086675457954E-02
   214  2.1300000000000E+00  2.9320389380038E-02  5.0128287435723E-02
   215  2.1400000000000E+00  2.8052126435128E-02  4.6337296191050E-02
   216  2.1500000000000E+00  2.6694386771733E-02  4.2711459547634E-02
   217  2.1600000000000E+00  2.5263328278599E-02  3.9248539196381E-02
   218  2.1700000000000E+00  2.3774678391190E-02  3.5946309681674E-02
   219  2.1800000000000E+00  2.2243683855879E-02  3.2802567126444E-02
   220  2.1900000000000E+00  2.0685062594974E-02  2.9815137675003E-02
   221  2.2000000000000E+00  1.9112957816677E-02  2.6981885633250E-02
   222  2.2100000000000E+00  1.7540894506766E-02  2.4300721286888E-02
   223  2.2200000000000E+00  1.5981738433323E-02  2.1769608379077E-02
   224  2.2300000000000E+00  1.4447657788485E-02  1.9386571229958E-02
   225  2.2400000000000E+00  1.2950088488395E-02  1.7149702002586E-02
   226  2.2500000000000E+00  1.1499696063336E-02  1.5057163990973E-02
   227  2.2600000000000E+00  1.0106356685873E-02  1.3107203712216E-02
   228  2.2700000000000E+00  8.7791277754402E-03  1.1298154104793E-02
   229  2.2800000000000E+00  7.5261922487356E-03  9.6284265853357E-03
   230  2.2900000000000E+00  6.3544018623653E-03  8.0962483196806E-03
   231  2.3000000000000E+00  5.2695031739305E-03  6.6997972363193E-03
   232  2.3100000000000E+00  4.2774422732644E-03  5.4379750396990E-03
   233  2.3200000000000E+00  3.3832969514214E-03  4.3098321564624E-03
   234  2.3300000000000E+00  2.5910922906831E-03  3.3144642599550E-03
   235  2.3400000000000E+00  1.9038811762617E-03  2.4510649470792E-03
   236  2.3500000000000E+00  1.3235742573454E-03  1.7188845193251E-03
   237  2.3600000000000E+00  8.5084106598658E-04  1.1172624308768E-03
   238  2.3700000000000E+00  4.8500407568442E-04  6.4554636245865E-04
   239  2.3800000000000E+00  2.2248706046716E-04  3.0082298110488E-04
   240  2.3900000000000E+00  6.5823206711136E-05  9.0745253043102E-05
   241  2.4000000000000E+00  3.9992119195408E-06  5.6772314445677E-06
   242  2.4100000000000E+00 -3.9018255054586E-06 -5.5192192414988E-06
   243  2.4200000000000E+00  1.1603071038533E-06  1.6159364585786E-06
   244  2.43  0.  0.
   245  2.44 -0. -0.
   246  2.45  0.  0.
   247  2.46  0.  0.
   248  2.47  0.  0.
   249  2.48  0.  0.
   250  2.49  0.  0.
   251  2.50  0.  0.
   252  2.51  0.  0.
   253  2.52  0.  0.
   254  2.53  0.  0.
   255  2.54  0.  0.
   256  2.55  0.  0.
   257  2.56  0.  0.
   258  2.57  0.  0.
   259  2.58  0.  0.
   260  2.59  0.  0.
   261  2.60  0.  0.
   262  2.61  0.  0.
   263  2.62  0.  0.
   264  2.63  0.  0.
   265  2.64  0.  0.
   266  2.65  0.  0.
   267  2.66  0.  0.
   268  2.67  0.  0.
   269  2.68  0.  0.
   270  2.69  0.  0.
   271  2.70  0.  0.
   272  2.71  0.  0.
   273  2.72  0.  0.
   274  2.73  0.  0.
   275  2.74  0.  0.
   276  2.75  0.  0.
   277  2.76  0.  0.
   278  2.77  0.  0.
   279  2.78  0.  0.
   280  2.79  0.  0.
   281  2.80  0.  0.
   282  2.81  0.  0.
   283  2.82  0.  0.
   284  2.83  0.  0.
   285  2.84  0.  0.
   286  2.85  0.  0.
   287  2.86  0.  0.
   288  2.87  0.  0.
   289  2.88  0.  0.
   290  2.89  0.  0.
   291  2.90  0.  0.
   292  2.91  0.  0.
   293  2.92  0.  0.
   294  2.93  0.  0.
   295  2.94  0.  0.
   296  2.95  0.  0.
   297  2.96  0.  0.
   298  2.97  0.  0.
   299  2.98  0.  0.
   300  2.99  0.  0.
   301  3.00  0.  0.
   302  3.01  0.  0.
   303  3.02  0.  0.
   304  3.03  0.  0.
   305  3.04  0.  0.
   306  3.05  0.  0.
   307  3.06  0.  0.
   308  3.07  0.  0.
   309  3.08  0.  0.
   310  3.09  0.  0.
   311  3.10  0.  0.
   312  3.11  0.  0.
   313  3.12  0.  0.
   314  3.13  0.  0.
   315  3.14  0.  0.
   316  3.15  0.  0.
   317  3.16  0.  0.
   318  3.17  0.  0.
   319  3.18  0.  0.
   320  3.19  0.  0.
   321  3.20  0.  0.
   322  3.21  0.  0.
   323  3.22  0.  0.
   324  3.23  0.  0.
   325  3.24  0.  0.
   326  3.25  0.  0.
   327  3.26  0.  0.
   328  3.27  0.  0.
   329  3.28  0.  0.
   330  3.29  0.  0.
   331  3.30  0.  0.
   332  3.31  0.  0.
   333  3.32  0.  0.
   334  3.33  0.  0.
   335  3.34  0.  0.
   336  3.35  0.  0.
   337  3.36  0.  0.
   338  3.37  0.  0.
   339  3.38  0.  0.
   340  3.39  0.  0.
   341  3.40  0.  0.
   342  3.41  0.  0.
   343  3.42  0.  0.
   344  3.43  0.  0.
   345  3.44  0.  0.
   346  3.45  0.  0.
   347  3.46  0.  0.
   348  3.47  0.  0.
   349  3.48  0.  0.
   350  3.49  0.  0.
   351  3.50  0.  0.
   352  3.51  0.  0.
   353  3.52  0.  0.
   354  3.53  0.  0.
   355  3.54  0.  0.
   356  3.55  0.  0.
   357  3.56  0.  0.
   358  3.57  0.  0.
   359  3.58  0.  0.
   360  3.59  0.  0.
   361  3.60  0.  0.
   362  3.61  0.  0.
   363  3.62  0.  0.
   364  3.63  0.  0.
   365  3.64  0.  0.
   366  3.65  0.  0.
   367  3.66  0.  0.
   368  3.67  0.  0.
   369  3.68  0.  0.
   370  3.69  0.  0.
   371  3.70  0.  0.
   372  3.71  0.  0.
   373  3.72  0.  0.
   374  3.73  0.  0.
   375  3.74  0.  0.
   376  3.75  0.  0.
   377  3.76  0.  0.
   378  3.77  0.  0.
   379  3.78  0.  0.
   380  3.79  0.  0.
   381  3.80  0.  0.
   382  3.81  0.  0.
   383  3.82  0.  0.
   384  3.83  0.  0.
   385  3.84  0.  0.
   386  3.85  0.  0.
   387  3.86  0.  0.
   388  3.87  0.  0.
   389  3.88  0.  0.
   390  3.89  0.  0.
   391  3.90  0.  0.
   392  3.91  0.  0.
   393  3.92  0.  0.
   394  3.93  0.  0.
   395  3.94  0.  0.
   396  3.95  0.  0.
   397  3.96  0.  0.
   398  3.97  0.  0.
   399  3.98  0.  0.
   400  3.99  0.  0.
   401  4.00  0.  0.
   402  4.01  0.  0.
   403  4.02  0.  0.
   404  4.03  0.  0.
   405  4.04  0.  0.
   406  4.05  0.  0.
   407  4.06  0.  0.
   408  4.07  0.  0.
   409  4.08  0.  0.
   410  4.09  0.  0.
   411  4.10  0.  0.
   412  4.11  0.  0.
   413  4.12  0.  0.
   414  4.13  0.  0.
   415  4.14  0.  0.
   416  4.15  0.  0.
   417  4.16  0.  0.
   418  4.17  0.  0.
   419  4.18  0.  0.
   420  4.19  0.  0.
   421  4.20  0.  0.
   422  4.21  0.  0.
   423  4.22  0.  0.
   424  4.23  0.  0.
   425  4.24  0.  0.
   426  4.25  0.  0.
   427  4.26  0.  0.
   428  4.27  0.  0.
   429  4.28  0.  0.
   430  4.29  0.  0.
   431  4.30  0.  0.
   432  4.31  0.  0.
   433  4.32  0.  0.
   434  4.33  0.  0.
   435  4.34  0.  0.
   436  4.35  0.  0.
   437  4.36  0.  0.
   438  4.37  0.  0.
   439  4.38  0.  0.
   440  4.39  0.  0.
   441  4.40  0.  0.
   442  4.41  0.  0.
   443  4.42  0.  0.
   444  4.43  0.  0.
   445  4.44  0.  0.
   446  4.45  0.  0.
   447  4.46  0.  0.
   448  4.47  0.  0.
   449  4.48  0.  0.
   450  4.49  0.  0.
   451  4.50  0.  0.
   452  4.51  0.  0.
   453  4.52  0.  0.
   454  4.53  0.  0.
   455  4.54  0.  0.
   456  4.55  0.  0.
   457  4.56  0.  0.
   458  4.57  0.  0.
   459  4.58  0.  0.
   460  4.59  0.  0.
   461  4.60  0.  0.
   462  4.61  0.  0.
   463  4.62  0.  0.
   464  4.63  0.  0.
   465  4.64  0.  0.
   466  4.65  0.  0.
   467  4.66  0.  0.
   468  4.67  0.  0.
   469  4.68  0.  0.
   470  4.69  0.  0.
   471  4.70  0.  0.
   472  4.71  0.  0.
   473  4.72  0.  0.
   474  4.73  0.  0.
   475  4.74  0.  0.
   476  4.75  0.  0.
   477  4.76  0.  0.
   478  4.77  0.  0.
   479  4.78  0.  0.
   480  4.79  0.  0.
   481  4.80  0.  0.
   482  4.81  0.  0.
   483  4.82  0.  0.
   484  4.83  0.  0.
   485  4.84  0.  0.
   486  4.85  0.  0.
   487  4.86  0.  0.
   488  4.87  0.  0.
   489  4.88  0.  0.
   490  4.89  0.  0.
   491  4.90  0.  0.
   492  4.91  0.  0.
   493  4.92  0.  0.
   494  4.93  0.  0.
   495  4.94  0.  0.
   496  4.95  0.  0.
   497  4.96  0.  0.
   498  4.97  0.  0.
   499  4.98  0.  0.
   500  4.99  0.  0.
   501  5.00  0.  0.
   502  5.01  0.  0.
   503  5.02  0.  0.
   504  5.03  0.  0.
   505  5.04  0.  0.
   506  5.05  0.  0.
   507  5.06  0.  0.
   508  5.07  0.  0.
   509  5.08  0.  0.
   510  5.09  0.  0.
   511  5.10  0.  0.
   512  5.11  0.  0.
   513  5.12  0.  0.
   514  5.13  0.  0.
   515  5.14  0.  0.
   516  5.15  0.  0.
   517  5.16  0.  0.
   518  5.17  0.  0.
   519  5.18  0.  0.
   520  5.19  0.  0.
   521  5.20  0.  0.
   522  5.21  0.  0.
   523  5.22  0.  0.
   524  5.23  0.  0.
   525  5.24  0.  0.
   526  5.25  0.  0.
   527  5.26  0.  0.
   528  5.27  0.  0.
   529  5.28  0.  0.
   530  5.29  0.  0.
   531  5.30  0.  0.
   532  5.31  0.  0.
   533  5.32  0.  0.
   534  5.33  0.  0.
   535  5.34  0.  0.
   536  5.35  0.  0.
   537  5.36  0.  0.
   538  5.37  0.  0.
   539  5.38  0.  0.
   540  5.39  0.  0.
   541  5.40  0.  0.
   542  5.41  0.  0.
   543  5.42  0.  0.
   544  5.43  0.  0.
   545  5.44  0.  0.
   546  5.45  0.  0.
   547  5.46  0.  0.
   548  5.47  0.  0.
   549  5.48  0.  0.
   550  5.49  0.  0.
   551  5.50  0.  0.
   552  5.51  0.  0.
   553  5.52  0.  0.
   554  5.53  0.  0.
   555  5.54  0.  0.
   556  5.55  0.  0.
   557  5.56  0.  0.
   558  5.57  0.  0.
   559  5.58  0.  0.
   560  5.59  0.  0.
   561  5.60  0.  0.
   562  5.61  0.  0.
   563  5.62  0.  0.
   564  5.63  0.  0.
   565  5.64  0.  0.
   566  5.65  0.  0.
   567  5.66  0.  0.
   568  5.67  0.  0.
   569  5.68  0.  0.
   570  5.69  0.  0.
   571  5.70  0.  0.
   572  5.71  0.  0.
   573  5.72  0.  0.
   574  5.73  0.  0.
   575  5.74  0.  0.
   576  5.75  0.  0.
   577  5.76  0.  0.
   578  5.77  0.  0.
   579  5.78  0.  0.
   580  5.79  0.  0.
   581  5.80  0.  0.
   582  5.81  0.  0.
   583  5.82  0.  0.
   584  5.83  0.  0.
   585  5.84  0.  0.
   586  5.85  0.  0.
   587  5.86  0.  0.
   588  5.87  0.  0.
   589  5.88  0.  0.
   590  5.89  0.  0.
   591  5.90  0.  0.
   592  5.91  0.  0.
   593  5.92  0.  0.
   594  5.93  0.  0.
   595  5.94  0.  0.
   596  5.95  0.  0.
   597  5.96  0.  0.
   598  5.97  0.  0.
   599  5.98  0.  0.
   600  5.99  0.  0.
   1                         6.0238178469318E+00 -1.0050144229101E+00
     1  0.0000000000000E+00  1.3317810743096E-10 -1.1897928822724E-11
     2  1.0000000000000E-02  1.3348897721854E-03  2.0930384819207E-04
     3  2.0000000000000E-02  5.3346139963718E-03  8.3729802799909E-04
     4  3.0000000000000E-02  1.1984355405962E-02  1.8842291726667E-03
     5  4.0000000000000E-02  2.1259478522619E-02  3.3505041022620E-03
     6  5.0000000000000E-02  3.3125619364914E-02  5.2366834921049E-03
     7  6.0000000000000E-02  4.7538810560561E-02  7.5434730513861E-03
     8  7.0000000000000E-02  6.4445641384786E-02  1.0271712254536E-02
     9  8.0000000000000E-02  8.3783452114176E-02  1.3422360679809E-02
    10  9.0000000000000E-02  1.0548056195458E-01  1.6996482021131E-02
    11  1.0000000000000E-01  1.2945652967406E-01  2.0995225850612E-02
    12  1.1000000000000E-01  1.5562244594745E-01  2.5419807220163E-02
    13  1.2000000000000E-01  1.8388125629905E-01  3.0271484201228E-02
    14  1.3000000000000E-01  2.1412811341384E-01  3.5551533471927E-02
    15  1.4000000000000E-01  2.4625075747687E-01  4.1261224070597E-02
    16  1.5000000000000E-01  2.8012992309507E-01  4.7401789443962E-02
    17  1.6000000000000E-01  3.1563977125561E-01  5.3974397926877E-02
    18  1.7000000000000E-01  3.5264834468152E-01  6.0980121798671E-02
    19  1.8000000000000E-01  3.9101804485817E-01  6.8419905068593E-02
    20  1.9000000000000E-01  4.3060612892417E-01  7.6294530149714E-02
    21  2.0000000000000E-01  4.7126522454669E-01  8.4604583586773E-02
    22  2.1000000000000E-01  5.1284386083644E-01  9.3350421008900E-02
    23  2.2000000000000E-01  5.5518701329913E-01  1.0253213148285E-01
    24  2.3000000000000E-01  5.9813666077048E-01  1.1214950144634E-01
    25  2.4000000000000E-01  6.4153235224039E-01  1.2220197840428E-01
    26  2.5000000000000E-01  6.8521178143806E-01  1.3268863457307E-01
    27  2.6000000000000E-01  7.2901136702503E-01  1.4360813065971E-01
    28  2.7000000000000E-01  7.7276683622649E-01  1.5495867996333E-01
    29  2.8000000000000E-01  8.1631380972313E-01  1.6673801298675E-01
    30  2.9000000000000E-01  8.5948838562645E-01  1.7894334274472E-01
    31  3.0000000000000E-01  9.0212772036950E-01  1.9157133095408E-01
    32  3.1000000000000E-01  9.4407060436241E-01  2.0461805528850E-01
    33  3.2000000000000E-01  9.8515803028829E-01  2.1807897787724E-01
    34  3.3000000000000E-01  1.0252337519490E+00  2.3194891522356E-01
    35  3.4000000000000E-01  1.0641448316128E+00  2.4622200971338E-01
    36  3.5000000000000E-01  1.1017421738664E+00  2.6089170287957E-01
    37  3.6000000000000E-01  1.1378810440302E+00  2.7595071058073E-01
    38  3.7000000000000E-01  1.1724215692646E+00  2.9139100024676E-01
    39  3.8000000000000E-01  1.2052292205625E+00  3.0720377033555E-01
    40  3.9000000000000E-01  1.2361752739077E+00  3.2337943213721E-01
    41  4.0000000000000E-01  1.2651372489607E+00  3.3990759405316E-01
    42  4.1000000000000E-01  1.2919993237283E+00  3.5677704846838E-01
    43  4.2000000000000E-01  1.3166527237691E+00  3.7397576132460E-01
    44  4.3000000000000E-01  1.3389960845910E+00  3.9149086449248E-01
    45  4.4000000000000E-01  1.3589357860052E+00  4.0930865102940E-01
    46  4.5000000000000E-01  1.3763862573127E+00  4.2741457339851E-01
    47  4.6000000000000E-01  1.3912702523149E+00  4.4579324471299E-01
    48  4.7000000000000E-01  1.4035190932635E+00  4.6442844305752E-01
    49  4.8000000000000E-01  1.4130728829828E+00  4.8330311892676E-01
    50  4.9000000000000E-01  1.4198806845260E+00  5.0239940580827E-01
    51  5.0000000000000E-01  1.4239006678541E+00  5.2169863392470E-01
    52  5.1000000000000E-01  1.4251002231538E+00  5.4118134713745E-01
    53  5.2000000000000E-01  1.4234560405410E+00  5.6082732300118E-01
    54  5.3000000000000E-01  1.4189541560274E+00  5.8061559594597E-01
    55  5.4000000000000E-01  1.4115899637550E+00  6.0052448355103E-01
    56  5.5000000000000E-01  1.4013681946367E+00  6.2053161586156E-01
    57  5.6000000000000E-01  1.3883028616649E+00  6.4061396768762E-01
    58  5.7000000000000E-01  1.3724171722801E+00  6.6074789381189E-01
    59  5.8000000000000E-01  1.3537434083126E+00  6.8090916702108E-01
    60  5.9000000000000E-01  1.3323227741349E+00  7.0107301886409E-01
    61  6.0000000000000E-01  1.3082052137772E+00  7.2121418302880E-01
    62  6.1000000000000E-01  1.2814491978767E+00  7.4130694121830E-01
    63  6.2000000000000E-01  1.2521214814399E+00  7.6132517139689E-01
    64  6.3000000000000E-01  1.2202968335021E+00  7.8124239826639E-01
    65  6.4000000000000E-01  1.1860577398733E+00  8.0103184582342E-01
    66  6.5000000000000E-01  1.1494940802505E+00  8.2066649183982E-01
    67  6.6000000000000E-01  1.1107027810715E+00  8.4011912409960E-01
    68  6.7000000000000E-01  1.0697874455647E+00  8.5936239821869E-01
    69  6.8000000000000E-01  1.0268579625312E+00  8.7836889686602E-01
    70  6.9000000000000E-01  9.8203009546542E-01  8.9711119019881E-01
    71  7.0000000000000E-01  9.3542505368190E-01  9.1556189731875E-01