Ta    ONCVPSP-4.0.1  r_core=   2.32674   2.19164   2.36887   2.65402
     73.0000     13.0000      210704    zatom,zion,pspd
     8      11   3     4   600     0    pspcod,pspxc,lmax,lloc,mmax,r2well
  5.99000000  5.00000000  0.00000000    rchrg fchrg qchrg
     2     2     2     2     0    nproj
     1     1           extension_switch
   0                         2.3169794618699E+00 -6.5384501233308E-01
     1  0.0000000000000E+00 -1.6618928455614E-12  8.5005613659206E-13
     2  1.0000000000000E-02  5.4190161425110E-02  1.2129852150425E-02
     3  2.0000000000000E-02  1.0829209201076E-01  2.4263354657456E-02
     4  3.0000000000000E-02  1.6221772674977E-01  3.6404141900839E-02
     5  4.0000000000000E-02  2.1587933198192E-01  4.8555816354575E-02
     6  5.0000000000000E-02  2.6918967027377E-01  6.0721932753809E-02
     7  6.0000000000000E-02  3.2206216434734E-01  7.2905982404818E-02
     8  7.0000000000000E-02  3.7441105974238E-01  8.5111377684813E-02
     9  8.0000000000000E-02  4.2615158589881E-01  9.7341436777440E-02
    10  9.0000000000000E-02  4.7720011534788E-01  1.0959936868879E-01
    11  1.0000000000000E-01  5.2747432070314E-01  1.2188825858752E-01
    12  1.1000000000000E-01  5.7689332914525E-01  1.3421105351126E-01
    13  1.2000000000000E-01  6.2537787409804E-01  1.4657054847989E-01
    14  1.3000000000000E-01  6.7285044379709E-01  1.5896937305443E-01
    15  1.4000000000000E-01  7.1923542645646E-01  1.7140997837852E-01
    16  1.5000000000000E-01  7.6445925174391E-01  1.8389462473724E-01
    17  1.6000000000000E-01  8.0845052828032E-01  1.9642536966588E-01
    18  1.7000000000000E-01  8.5114017688480E-01  2.0900405663898E-01
    19  1.8000000000000E-01  8.9246155929325E-01  2.2163230436745E-01
    20  1.9000000000000E-01  9.3235060208501E-01  2.3431149672928E-01
    21  2.0000000000000E-01  9.7074591555960E-01  2.4704277335629E-01
    22  2.1000000000000E-01  1.0075889073134E+00  2.5982702089742E-01
    23  2.2000000000000E-01  1.0428238902749E+00  2.7266486497561E-01
    24  2.3000000000000E-01  1.0763981849657E+00  2.8555666285328E-01
    25  2.4000000000000E-01  1.1082622157642E+00  2.9850249681808E-01
    26  2.5000000000000E-01  1.1383696009602E+00  3.1150216829840E-01
    27  2.6000000000000E-01  1.1666772363967E+00  3.2455519271498E-01
    28  2.7000000000000E-01  1.1931453725105E+00  3.3766079507258E-01
    29  2.8000000000000E-01  1.2177376845908E+00  3.5081790629280E-01
    30  2.9000000000000E-01  1.2404213360912E+00  3.6402516028687E-01
    31  3.0000000000000E-01  1.2611670348416E+00  3.7728089176449E-01
    32  3.1000000000000E-01  1.2799490820203E+00  3.9058313477247E-01
    33  3.2000000000000E-01  1.2967454137616E+00  4.0392962195482E-01
    34  3.3000000000000E-01  1.3115376352885E+00  4.1731778452338E-01
    35  3.4000000000000E-01  1.3243110474743E+00  4.3074475292657E-01
    36  3.5000000000000E-01  1.3350546657561E+00  4.4420735820133E-01
    37  3.6000000000000E-01  1.3437612313339E+00  4.5770213399209E-01
    38  3.7000000000000E-01  1.3504272146117E+00  4.7122531921864E-01
    39  3.8000000000000E-01  1.3550528108495E+00  4.8477286137349E-01
    40  3.9000000000000E-01  1.3576419280144E+00  4.9834042042792E-01
    41  4.0000000000000E-01  1.3582021668379E+00  5.1192337332493E-01
    42  4.1000000000000E-01  1.3567447931022E+00  5.2551681903609E-01
    43  4.2000000000000E-01  1.3532847021981E+00  5.3911558415894E-01
    44  4.3000000000000E-01  1.3478403760155E+00  5.5271422903034E-01
    45  4.4000000000000E-01  1.3404338322471E+00  5.6630705433148E-01
    46  4.5000000000000E-01  1.3310905662019E+00  5.7988810815926E-01
    47  4.6000000000000E-01  1.3198394852472E+00  5.9345119353912E-01
    48  4.7000000000000E-01  1.3067128360152E+00  6.0698987635434E-01
    49  4.8000000000000E-01  1.2917461245281E+00  6.2049749366678E-01
    50  4.9000000000000E-01  1.2749780294170E+00  6.3396716240468E-01
    51  5.0000000000000E-01  1.2564503084245E+00  6.4739178839349E-01
    52  5.1000000000000E-01  1.2362076984032E+00  6.6076407570623E-01
    53  5.2000000000000E-01  1.2142978090365E+00  6.7407653631068E-01
    54  5.3000000000000E-01  1.1907710105275E+00  6.8732149999149E-01
    55  5.4000000000000E-01  1.1656803155193E+00  7.0049112452628E-01
    56  5.5000000000000E-01  1.1390812555239E+00  7.1357740609570E-01
    57  5.6000000000000E-01  1.1110317521549E+00  7.2657218990841E-01
    58  5.7000000000000E-01  1.0815919834743E+00  7.3946718102350E-01
    59  5.8000000000000E-01  1.0508242457762E+00  7.5225395535330E-01
    60  5.9000000000000E-01  1.0187928111456E+00  7.6492397083148E-01
    61  6.0000000000000E-01  9.8556378114330E-01  7.7746857873197E-01
    62  6.1000000000000E-01  9.5120493697725E-01  7.8987903512578E-01
    63  6.2000000000000E-01  9.1578558653530E-01  8.0214651246386E-01
    64  6.3000000000000E-01  8.7937640866050E-01  8.1426211127526E-01
    65  6.4000000000000E-01  8.4204929506115E-01  8.2621687197106E-01
    66  6.5000000000000E-01  8.0387719025413E-01  8.3800178674564E-01
    67  6.6000000000000E-01  7.6493392994695E-01  8.4960781156776E-01
    68  6.7000000000000E-01  7.2529407826901E-01  8.6102587825483E-01
    69  6.8000000000000E-01  6.8503276426621E-01  8.7224690662479E-01
    70  6.9000000000000E-01  6.4422551807614E-01  8.8326181672057E-01
    71  7.0000000000000E-01  6.0294810720185E-01  8.9406154110273E-01
    72  7.1000000000000E-01  5.6127637330280E-01  9.0463703720657E-01
    73  7.2000000000000E-01  5.1928606991960E-01  9.1497929976023E-01
    74  7.3000000000000E-01  4.7705270154703E-01  9.2507937326064E-01
    75  7.4000000000000E-01  4.3465136446550E-01  9.3492836450433E-01
    76  7.5000000000000E-01  3.9215658973568E-01  9.4451745517005E-01
    77  7.6000000000000E-01  3.4964218875456E-01  9.5383791445005E-01
    78  7.7000000000000E-01  3.0718110176295E-01  9.6288111172668E-01
    79  7.8000000000000E-01  2.6484524968530E-01  9.7163852929030E-01
    80  7.9000000000000E-01  2.2270538967181E-01  9.8010177509419E-01
    81  8.0000000000000E-01  1.8083097470145E-01  9.8826259554144E-01
    82  8.1000000000000E-01  1.3929001759092E-01  9.9611288829766E-01
    83  8.2000000000000E-01  9.8148959740996E-02  1.0036447151229E+00
    84  8.3000000000000E-01  5.7472544935743E-02  1.0108503147147E+00
    85  8.4000000000000E-01  1.7323698494526E-02  1.0177221155530E+00
    86  8.5000000000000E-01 -2.2236587941314E-02  1.0242527487372E+00
    87  8.6000000000000E-01 -6.1149365722929E-02  1.0304350608023E+00
    88  8.7000000000000E-01 -9.9357832364816E-02  1.0362621265022E+00
    89  8.8000000000000E-01 -1.3680742834701E-01  1.0417272615453E+00
    90  8.9000000000000E-01 -1.7344592734417E-01  1.0468240352642E+00
    91  9.0000000000000E-01 -2.0922351969842E-01  1.0515462832048E+00
    92  9.1000000000000E-01 -2.4409288897430E-01  1.0558881196121E+00
    93  9.2000000000000E-01 -2.7800928145673E-01  1.0598439497937E+00
    94  9.3000000000000E-01 -3.1093056847506E-01  1.0634084823358E+00
    95  9.4000000000000E-01 -3.4281730145951E-01  1.0665767411502E+00
    96  9.5000000000000E-01 -3.7363275965895E-01  1.0693440773232E+00
    97  9.6000000000000E-01 -4.0334299047239E-01  1.0717061807401E+00
    98  9.7000000000000E-01 -4.3191684236957E-01  1.0736590914559E+00
    99  9.8000000000000E-01 -4.5932599039901E-01  1.0751992107816E+00
   100  9.9000000000000E-01 -4.8554495430477E-01  1.0763233120544E+00
   101  1.0000000000000E+00 -5.1055110929598E-01  1.0770285510572E+00
   102  1.0100000000000E+00 -5.3432468953502E-01  1.0773124760554E+00
   103  1.0200000000000E+00 -5.5684878443244E-01  1.0771730374143E+00
   104  1.0300000000000E+00 -5.7810932785768E-01  1.0766085967612E+00
   105  1.0400000000000E+00 -5.9809508039553E-01  1.0756179356568E+00
   106  1.0500000000000E+00 -6.1679760479808E-01  1.0742002637375E+00
   107  1.0600000000000E+00 -6.3421123480134E-01  1.0723552262920E+00
   108  1.0700000000000E+00 -6.5033303749376E-01  1.0700829112350E+00
   109  1.0800000000000E+00 -6.6516276944192E-01  1.0673838554412E+00
   110  1.0900000000000E+00 -6.7870282679460E-01  1.0642590504014E+00
   111  1.1000000000000E+00 -6.9095818960251E-01  1.0607099471667E+00
   112  1.1100000000000E+00 -7.0193636060513E-01  1.0567384605432E+00
   113  1.1200000000000E+00 -7.1164729874963E-01  1.0523469725051E+00
   114  1.1300000000000E+00 -7.2010334771898E-01  1.0475383347913E+00
   115  1.1400000000000E+00 -7.2731915975764E-01  1.0423158706546E+00
   116  1.1500000000000E+00 -7.3331161509266E-01  1.0366833757352E+00
   117  1.1600000000000E+00 -7.3809973725721E-01  1.0306451180272E+00
   118  1.1700000000000E+00 -7.4170460463044E-01  1.0242058369167E+00
   119  1.1800000000000E+00 -7.4414925851395E-01  1.0173707412641E+00
   120  1.1900000000000E+00 -7.4545860807010E-01  1.0101455065136E+00
   121  1.2000000000000E+00 -7.4565933245073E-01  1.0025362708083E+00
   122  1.2100000000000E+00 -7.4477978044758E-01  9.9454963009928E-01
   123  1.2200000000000E+00 -7.4284986799652E-01  9.8619263223463E-01
   124  1.2300000000000E+00 -7.3990097386795E-01  9.7747277002047E-01
   125  1.2400000000000E+00 -7.3596583387406E-01  9.6839797324927E-01
   126  1.2500000000000E+00 -7.3107843392177E-01  9.5897659969332E-01
   127  1.2600000000000E+00 -7.2527390223605E-01  9.4921742506595E-01
   128  1.2700000000000E+00 -7.1858840107411E-01  9.3912963195602E-01
   129  1.2800000000000E+00 -7.1105901824510E-01  9.2872279774587E-01
   130  1.2900000000000E+00 -7.0272365874330E-01  9.1800688152597E-01
   131  1.3000000000000E+00 -6.9362093679528E-01  9.0699221002423E-01
   132  1.3100000000000E+00 -6.8379006861284E-01  8.9568946257137E-01
   133  1.3200000000000E+00 -6.7327076613441E-01  8.8410965512794E-01
   134  1.3300000000000E+00 -6.6210313202735E-01  8.7226412340253E-01
   135  1.3400000000000E+00 -6.5032755621300E-01  8.6016450509443E-01
   136  1.3500000000000E+00 -6.3798461416446E-01  8.4782272129802E-01
   137  1.3600000000000E+00 -6.2511496721577E-01  8.3525095710980E-01
   138  1.3700000000000E+00 -6.1175926510780E-01  8.2246164148262E-01
   139  1.3800000000000E+00 -5.9795805098400E-01  8.0946742637521E-01
   140  1.3900000000000E+00 -5.8375166903522E-01  7.9628116524834E-01
   141  1.4000000000000E+00 -5.6918017497949E-01  7.8291589096237E-01
   142  1.4100000000000E+00 -5.5428324954866E-01  7.6938479313365E-01
   143  1.4200000000000E+00 -5.3910011513978E-01  7.5570119501033E-01
   144  1.4300000000000E+00 -5.2366945577501E-01  7.4187852993045E-01
   145  1.4400000000000E+00 -5.0802934049935E-01  7.2793031742781E-01
   146  1.4500000000000E+00 -4.9221715033179E-01  7.1387013905299E-01
   147  1.4600000000000E+00 -4.7626950887085E-01  6.9971161397886E-01
   148  1.4700000000000E+00 -4.6022221664184E-01  6.8546837446145E-01
   149  1.4800000000000E+00 -4.4411018925930E-01  6.7115404122845E-01
   150  1.4900000000000E+00 -4.2796739946436E-01  6.5678219886835E-01
   151  1.5000000000000E+00 -4.1182682308375E-01  6.4236637129437E-01
   152  1.5100000000000E+00 -3.9572038894398E-01  6.2791999735716E-01
   153  1.5200000000000E+00 -3.7967893276189E-01  6.1345640668106E-01
   154  1.5300000000000E+00 -3.6373215502025E-01  5.9898879579776E-01
   155  1.5400000000000E+00 -3.4790858282577E-01  5.8453020465127E-01
   156  1.5500000000000E+00 -3.3223553573525E-01  5.7009349354702E-01
   157  1.5600000000000E+00 -3.1673909552508E-01  5.5569132061676E-01
   158  1.5700000000000E+00 -3.0144407986874E-01  5.4133611986970E-01
   159  1.5800000000000E+00 -2.8637401987770E-01  5.2704007989837E-01
   160  1.5900000000000E+00 -2.7155114145131E-01  5.1281512330586E-01
   161  1.6000000000000E+00 -2.5699635037318E-01  4.9867288691875E-01
   162  1.6100000000000E+00 -2.4272922108332E-01  4.8462470284744E-01
   163  1.6200000000000E+00 -2.2876798904746E-01  4.7068158045295E-01
   164  1.6300000000000E+00 -2.1512954663879E-01  4.5685418927590E-01
   165  1.6400000000000E+00 -2.0182944244012E-01  4.4315284298052E-01
   166  1.6500000000000E+00 -1.8888188386931E-01  4.2958748436265E-01
   167  1.6600000000000E+00 -1.7629974302533E-01  4.1616767146728E-01
   168  1.6700000000000E+00 -1.6409456564736E-01  4.0290256485713E-01
   169  1.6800000000000E+00 -1.5227658307545E-01  3.8980091606989E-01
   170  1.6900000000000E+00 -1.4085472709754E-01  3.7687105729742E-01
   171  1.7000000000000E+00 -1.2983664756400E-01  3.6412089231605E-01
   172  1.7100000000000E+00 -1.1922873264870E-01  3.5155788869248E-01
   173  1.7200000000000E+00 -1.0903613163280E-01  3.3918907128570E-01
   174  1.7300000000000E+00 -9.9262780085856E-02  3.2702101706029E-01
   175  1.7400000000000E+00 -8.9911427317256E-02  3.1505985122224E-01
   176  1.7500000000000E+00 -8.0983665969781E-02  3.0331124468366E-01
   177  1.7600000000000E+00 -7.2479963626549E-02  2.9178041285804E-01
   178  1.7700000000000E+00 -6.4399696301906E-02  2.8047211578335E-01
   179  1.7800000000000E+00 -5.6741183686885E-02  2.6939065956534E-01
   180  1.7900000000000E+00 -4.9501726019845E-02  2.5853989912921E-01
   181  1.8000000000000E+00 -4.2677642453377E-02  2.4792324226315E-01
   182  1.8100000000000E+00 -3.6264310789150E-02  2.3754365493294E-01
   183  1.8200000000000E+00 -3.0256208453153E-02  2.2740366784267E-01
   184  1.8300000000000E+00 -2.4646954584895E-02  2.1750538421221E-01
   185  1.8400000000000E+00 -1.9429353115175E-02  2.0785048873843E-01
   186  1.8500000000000E+00 -1.4595436708435E-02  1.9844025770319E-01
   187  1.8600000000000E+00 -1.0136511447141E-02  1.8927557018720E-01
   188  1.8700000000000E+00 -6.0432021371814E-03  1.8035692034590E-01
   189  1.8800000000000E+00 -2.3054981149255E-03  1.7168443069973E-01
   190  1.8900000000000E+00  1.0872005616386E-03  1.6325786638835E-01
   191  1.9000000000000E+00  4.1460366534717E-03  1.5507665033542E-01
   192  1.9100000000000E+00  6.8826491266717E-03  1.4713987926787E-01
   193  1.9200000000000E+00  9.3091264962213E-03  1.3944634053121E-01
   194  1.9300000000000E+00  1.1437960237262E-02  1.3199452964038E-01
   195  1.9400000000000E+00  1.3281998371845E-02  1.2478266850323E-01
   196  1.9500000000000E+00  1.4854399336982E-02  1.1780872425279E-01
   197  1.9600000000000E+00  1.6168586237753E-02  1.1107042862220E-01
   198  1.9700000000000E+00  1.7238201587011E-02  1.0456529779554E-01
   199  1.9800000000000E+00  1.8077062631067E-02  9.8290652666668E-02
   200  1.9900000000000E+00  1.8699117358503E-02  9.2243639437329E-02
   201  2.0000000000000E+00  1.9118401286869E-02  8.6421250485510E-02
   202  2.0100000000000E+00  1.9348995119864E-02  8.0820345434692E-02
   203  2.0200000000000E+00  1.9404983365042E-02  7.5437672354655E-02
   204  2.0300000000000E+00  1.9300413999696E-02  7.0269889024740E-02
   205  2.0400000000000E+00  1.9049259270083E-02  6.5313584190950E-02
   206  2.0500000000000E+00  1.8665377706551E-02  6.0565298748904E-02
   207  2.0600000000000E+00  1.8162477434400E-02  5.6021546785651E-02
   208  2.0700000000000E+00  1.7554080857793E-02  5.1678836414301E-02
   209  2.0800000000000E+00  1.6853490790920E-02  4.7533690336855E-02
   210  2.0900000000000E+00  1.6073758107924E-02  4.3582666072053E-02
   211  2.1000000000000E+00  1.5227650980022E-02  3.9822375786694E-02
   212  2.1100000000000E+00  1.4327625765054E-02  3.6249505670803E-02
   213  2.1200000000000E+00  1.3385799611787E-02  3.2860834798839E-02
   214  2.1300000000000E+00  1.2413924837636E-02  2.9653253421440E-02
   215  2.1400000000000E+00  1.1423365135284E-02  2.6623780634418E-02
   216  2.1500000000000E+00  1.0425073660155E-02  2.3769581374066E-02
   217  2.1600000000000E+00  9.4295731815057E-03  2.1087982754680E-02
   218  2.1700000000000E+00  8.4469389448139E-03  1.8576490451335E-02
   219  2.1800000000000E+00  7.4867741459462E-03  1.6232796518948E-02
   220  2.1900000000000E+00  6.5582174829415E-03  1.4054809676152E-02
   221  2.2000000000000E+00  5.6699086422564E-03  1.2040653226008E-02
   222  2.2100000000000E+00  4.8297383163427E-03  1.0188546383349E-02
   223  2.2200000000000E+00  4.0441453739398E-03  8.4961791591066E-03
   224  2.2300000000000E+00  3.3185518544193E-03  6.9612399300526E-03
   225  2.2400000000000E+00  2.6583816481052E-03  5.5825240314195E-03
   226  2.2500000000000E+00  2.0679308512191E-03  4.3588110106692E-03
   227  2.2600000000000E+00  1.5503595557476E-03  3.2888655550518E-03
   228  2.2700000000000E+00  1.1077319845988E-03  2.3714828086972E-03
   229  2.2800000000000E+00  7.4100929580902E-04  1.6054861323147E-03
   230  2.2900000000000E+00  4.5016165547534E-04  9.9000108809396E-04
   231  2.3000000000000E+00  2.3349264457001E-04  5.2276761982479E-04
   232  2.3100000000000E+00  8.8875872040609E-05  2.0318770907820E-04
   233  2.3200000000000E+00  1.6860120651122E-05  3.9607528605735E-05
   234  2.3300000000000E+00 -2.5330471505017E-06 -6.0055600051270E-06
   235  2.3400000000000E+00 -2.9654306724186E-07 -7.1526073798482E-07
   236  2.35  0.  0.
   237  2.36 -0. -0.
   238  2.37  0.  0.
   239  2.38  0.  0.
   240  2.39  0.  0.
   241  2.40  0.  0.
   242  2.41  0.  0.
   243  2.42  0.  0.
   244  2.43  0.  0.
   245  2.44  0.  0.
   246  2.45  0.  0.
   247  2.46  0.  0.
   248  2.47  0.  0.
   249  2.48  0.  0.
   250  2.49  0.  0.
   251  2.50  0.  0.
   252  2.51  0.  0.
   253  2.52  0.  0.
   254  2.53  0.  0.
   255  2.54  0.  0.
   256  2.55  0.  0.
   257  2.56  0.  0.
   258  2.57  0.  0.
   259  2.58  0.  0.
   260  2.59  0.  0.
   261  2.60  0.  0.
   262  2.61  0.  0.
   263  2.62  0.  0.
   264  2.63  0.  0.
   265  2.64  0.  0.
   266  2.65  0.  0.
   267  2.66  0.  0.
   268  2.67  0.  0.
   269  2.68  0.  0.
   270  2.69  0.  0.
   271  2.70  0.  0.
   272  2.71  0.  0.
   273  2.72  0.  0.
   274  2.73  0.  0.
   275  2.74  0.  0.
   276  2.75  0.  0.
   277  2.76  0.  0.
   278  2.77  0.  0.
   279  2.78  0.  0.
   280  2.79  0.  0.
   281  2.80  0.  0.
   282  2.81  0.  0.
   283  2.82  0.  0.
   284  2.83  0.  0.
   285  2.84  0.  0.
   286  2.85  0.  0.
   287  2.86  0.  0.
   288  2.87  0.  0.
   289  2.88  0.  0.
   290  2.89  0.  0.
   291  2.90  0.  0.
   292  2.91  0.  0.
   293  2.92  0.  0.
   294  2.93  0.  0.
   295  2.94  0.  0.
   296  2.95  0.  0.
   297  2.96  0.  0.
   298  2.97  0.  0.
   299  2.98  0.  0.
   300  2.99  0.  0.
   301  3.00  0.  0.
   302  3.01  0.  0.
   303  3.02  0.  0.
   304  3.03  0.  0.
   305  3.04  0.  0.
   306  3.05  0.  0.
   307  3.06  0.  0.
   308  3.07  0.  0.
   309  3.08  0.  0.
   310  3.09  0.  0.
   311  3.10  0.  0.
   312  3.11  0.  0.
   313  3.12  0.  0.
   314  3.13  0.  0.
   315  3.14  0.  0.
   316  3.15  0.  0.
   317  3.16  0.  0.
   318  3.17  0.  0.
   319  3.18  0.  0.
   320  3.19  0.  0.
   321  3.20  0.  0.
   322  3.21  0.  0.
   323  3.22  0.  0.
   324  3.23  0.  0.
   325  3.24  0.  0.
   326  3.25  0.  0.
   327  3.26  0.  0.
   328  3.27  0.  0.
   329  3.28  0.  0.
   330  3.29  0.  0.
   331  3.30  0.  0.
   332  3.31  0.  0.
   333  3.32  0.  0.
   334  3.33  0.  0.
   335  3.34  0.  0.
   336  3.35  0.  0.
   337  3.36  0.  0.
   338  3.37  0.  0.
   339  3.38  0.  0.
   340  3.39  0.  0.
   341  3.40  0.  0.
   342  3.41  0.  0.
   343  3.42  0.  0.
   344  3.43  0.  0.
   345  3.44  0.  0.
   346  3.45  0.  0.
   347  3.46  0.  0.
   348  3.47  0.  0.
   349  3.48  0.  0.
   350  3.49  0.  0.
   351  3.50  0.  0.
   352  3.51  0.  0.
   353  3.52  0.  0.
   354  3.53  0.  0.
   355  3.54  0.  0.
   356  3.55  0.  0.
   357  3.56  0.  0.
   358  3.57  0.  0.
   359  3.58  0.  0.
   360  3.59  0.  0.
   361  3.60  0.  0.
   362  3.61  0.  0.
   363  3.62  0.  0.
   364  3.63  0.  0.
   365  3.64  0.  0.
   366  3.65  0.  0.
   367  3.66  0.  0.
   368  3.67  0.  0.
   369  3.68  0.  0.
   370  3.69  0.  0.
   371  3.70  0.  0.
   372  3.71  0.  0.
   373  3.72  0.  0.
   374  3.73  0.  0.
   375  3.74  0.  0.
   376  3.75  0.  0.
   377  3.76  0.  0.
   378  3.77  0.  0.
   379  3.78  0.  0.
   380  3.79  0.  0.
   381  3.80  0.  0.
   382  3.81  0.  0.
   383  3.82  0.  0.
   384  3.83  0.  0.
   385  3.84  0.  0.
   386  3.85  0.  0.
   387  3.86  0.  0.
   388  3.87  0.  0.
   389  3.88  0.  0.
   390  3.89  0.  0.
   391  3.90  0.  0.
   392  3.91  0.  0.
   393  3.92  0.  0.
   394  3.93  0.  0.
   395  3.94  0.  0.
   396  3.95  0.  0.
   397  3.96  0.  0.
   398  3.97  0.  0.
   399  3.98  0.  0.
   400  3.99  0.  0.
   401  4.00  0.  0.
   402  4.01  0.  0.
   403  4.02  0.  0.
   404  4.03  0.  0.
   405  4.04  0.  0.
   406  4.05  0.  0.
   407  4.06  0.  0.
   408  4.07  0.  0.
   409  4.08  0.  0.
   410  4.09  0.  0.
   411  4.10  0.  0.
   412  4.11  0.  0.
   413  4.12  0.  0.
   414  4.13  0.  0.
   415  4.14  0.  0.
   416  4.15  0.  0.
   417  4.16  0.  0.
   418  4.17  0.  0.
   419  4.18  0.  0.
   420  4.19  0.  0.
   421  4.20  0.  0.
   422  4.21  0.  0.
   423  4.22  0.  0.
   424  4.23  0.  0.
   425  4.24  0.  0.
   426  4.25  0.  0.
   427  4.26  0.  0.
   428  4.27  0.  0.
   429  4.28  0.  0.
   430  4.29  0.  0.
   431  4.30  0.  0.
   432  4.31  0.  0.
   433  4.32  0.  0.
   434  4.33  0.  0.
   435  4.34  0.  0.
   436  4.35  0.  0.
   437  4.36  0.  0.
   438  4.37  0.  0.
   439  4.38  0.  0.
   440  4.39  0.  0.
   441  4.40  0.  0.
   442  4.41  0.  0.
   443  4.42  0.  0.
   444  4.43  0.  0.
   445  4.44  0.  0.
   446  4.45  0.  0.
   447  4.46  0.  0.
   448  4.47  0.  0.
   449  4.48  0.  0.
   450  4.49  0.  0.
   451  4.50  0.  0.
   452  4.51  0.  0.
   453  4.52  0.  0.
   454  4.53  0.  0.
   455  4.54  0.  0.
   456  4.55  0.  0.
   457  4.56  0.  0.
   458  4.57  0.  0.
   459  4.58  0.  0.
   460  4.59  0.  0.
   461  4.60  0.  0.
   462  4.61  0.  0.
   463  4.62  0.  0.
   464  4.63  0.  0.
   465  4.64  0.  0.
   466  4.65  0.  0.
   467  4.66  0.  0.
   468  4.67  0.  0.
   469  4.68  0.  0.
   470  4.69  0.  0.
   471  4.70  0.  0.
   472  4.71  0.  0.
   473  4.72  0.  0.
   474  4.73  0.  0.
   475  4.74  0.  0.
   476  4.75  0.  0.
   477  4.76  0.  0.
   478  4.77  0.  0.
   479  4.78  0.  0.
   480  4.79  0.  0.
   481  4.80  0.  0.
   482  4.81  0.  0.
   483  4.82  0.  0.
   484  4.83  0.  0.
   485  4.84  0.  0.
   486  4.85  0.  0.
   487  4.86  0.  0.
   488  4.87  0.  0.
   489  4.88  0.  0.
   490  4.89  0.  0.
   491  4.90  0.  0.
   492  4.91  0.  0.
   493  4.92  0.  0.
   494  4.93  0.  0.
   495  4.94  0.  0.
   496  4.95  0.  0.
   497  4.96  0.  0.
   498  4.97  0.  0.
   499  4.98  0.  0.
   500  4.99  0.  0.
   501  5.00  0.  0.
   502  5.01  0.  0.
   503  5.02  0.  0.
   504  5.03  0.  0.
   505  5.04  0.  0.
   506  5.05  0.  0.
   507  5.06  0.  0.
   508  5.07  0.  0.
   509  5.08  0.  0.
   510  5.09  0.  0.
   511  5.10  0.  0.
   512  5.11  0.  0.
   513  5.12  0.  0.
   514  5.13  0.  0.
   515  5.14  0.  0.
   516  5.15  0.  0.
   517  5.16  0.  0.
   518  5.17  0.  0.
   519  5.18  0.  0.
   520  5.19  0.  0.
   521  5.20  0.  0.
   522  5.21  0.  0.
   523  5.22  0.  0.
   524  5.23  0.  0.
   525  5.24  0.  0.
   526  5.25  0.  0.
   527  5.26  0.  0.
   528  5.27  0.  0.
   529  5.28  0.  0.
   530  5.29  0.  0.
   531  5.30  0.  0.
   532  5.31  0.  0.
   533  5.32  0.  0.
   534  5.33  0.  0.
   535  5.34  0.  0.
   536  5.35  0.  0.
   537  5.36  0.  0.
   538  5.37  0.  0.
   539  5.38  0.  0.
   540  5.39  0.  0.
   541  5.40  0.  0.
   542  5.41  0.  0.
   543  5.42  0.  0.
   544  5.43  0.  0.
   545  5.44  0.  0.
   546  5.45  0.  0.
   547  5.46  0.  0.
   548  5.47  0.  0.
   549  5.48  0.  0.
   550  5.49  0.  0.
   551  5.50  0.  0.
   552  5.51  0.  0.
   553  5.52  0.  0.
   554  5.53  0.  0.
   555  5.54  0.  0.
   556  5.55  0.  0.
   557  5.56  0.  0.
   558  5.57  0.  0.
   559  5.58  0.  0.
   560  5.59  0.  0.
   561  5.60  0.  0.
   562  5.61  0.  0.
   563  5.62  0.  0.
   564  5.63  0.  0.
   565  5.64  0.  0.
   566  5.65  0.  0.
   567  5.66  0.  0.
   568  5.67  0.  0.
   569  5.68  0.  0.
   570  5.69  0.  0.
   571  5.70  0.  0.
   572  5.71  0.  0.
   573  5.72  0.  0.
   574  5.73  0.  0.
   575  5.74  0.  0.
   576  5.75  0.  0.
   577  5.76  0.  0.
   578  5.77  0.  0.
   579  5.78  0.  0.
   580  5.79  0.  0.
   581  5.80  0.  0.
   582  5.81  0.  0.
   583  5.82  0.  0.
   584  5.83  0.  0.
   585  5.84  0.  0.
   586  5.85  0.  0.
   587  5.86  0.  0.
   588  5.87  0.  0.
   589  5.88  0.  0.
   590  5.89  0.  0.
   591  5.90  0.  0.
   592  5.91  0.  0.
   593  5.92  0.  0.
   594  5.93  0.  0.
   595  5.94  0.  0.
   596  5.95  0.  0.
   597  5.96  0.  0.
   598  5.97  0.  0.
   599  5.98  0.  0.
   600  5.99  0.  0.
   1                         1.7183111298098E+00 -8.9170360348060E-01
     1  0.0000000000000E+00  7.2202119283382E-11 -1.1269834024330E-11
     2  1.0000000000000E-02  1.2646189056654E-03  2.0090222589977E-04
     3  2.0000000000000E-02  5.0540864908775E-03  8.0372794468508E-04
     4  3.0000000000000E-02  1.1355249301293E-02  1.8088329144014E-03
     5  4.0000000000000E-02  2.0146231347271E-02  3.2168055201463E-03
     6  5.0000000000000E-02  3.1396503630019E-02  5.0284599767988E-03
     7  6.0000000000000E-02  4.5066981227410E-02  7.2448268531022E-03
     8  7.0000000000000E-02  6.1110147688784E-02  9.8671409572710E-03
     9  8.0000000000000E-02  7.9470206415858E-02  1.2896826635562E-02
    10  9.0000000000000E-02  1.0008325863526E-01  1.6335480546328E-02
    11  1.0000000000000E-01  1.2287750749559E-01  2.0184851983129E-02
    12  1.1000000000000E-01  1.4777348775033E-01  2.4446820831082E-02
    13  1.2000000000000E-01  1.7468432041490E-01  2.9123373251285E-02
    14  1.3000000000000E-01  2.0351599171478E-01  3.4216575198215E-02
    15  1.4000000000000E-01  2.3416765556840E-01  3.9728543885044E-02
    16  1.5000000000000E-01  2.6653195877738E-01  4.5661417321266E-02
    17  1.6000000000000E-01  3.0049538802458E-01  5.2017322056306E-02
    18  1.7000000000000E-01  3.3593863770907E-01  5.8798339271476E-02
    19  1.8000000000000E-01  3.7273699757709E-01  6.6006469371005E-02
    20  1.9000000000000E-01  4.1076075903793E-01  7.3643595230710E-02
    21  2.0000000000000E-01  4.4987563898538E-01  8.1711444270158E-02
    22  2.1000000000000E-01  4.8994321987846E-01  9.0211549520989E-02
    23  2.2000000000000E-01  5.3082140476923E-01  9.9145209870238E-02
    24  2.3000000000000E-01  5.7236488590278E-01  1.0851344966306E-01
    25  2.4000000000000E-01  6.1442562545288E-01  1.1831697785419E-01
    26  2.5000000000000E-01  6.5685334689891E-01  1.2855614690180E-01
    27  2.6000000000000E-01  6.9949603549429E-01  1.3923091160076E-01
    28  2.7000000000000E-01  7.4220044622510E-01  1.5034078805541E-01
    29  2.8000000000000E-01  7.8481261760978E-01  1.6188481299374E-01
    30  2.9000000000000E-01  8.2717838964726E-01  1.7386150362631E-01
    31  3.0000000000000E-01  8.6914392418237E-01  1.8626881825363E-01
    32  3.1000000000000E-01  9.1055622592365E-01  1.9910411782539E-01
    33  3.2000000000000E-01  9.5126366232062E-01  2.1236412865373E-01
    34  3.3000000000000E-01  9.9111648048578E-01  2.2604490648076E-01
    35  3.4000000000000E-01  1.0299673193304E+00  2.4014180209738E-01
    36  3.5000000000000E-01  1.0676717150745E+00  2.5464942870711E-01
    37  3.6000000000000E-01  1.1040885982895E+00  2.6956163122348E-01
    38  3.7000000000000E-01  1.1390807806359E+00  2.8487145768441E-01
    39  3.8000000000000E-01  1.1725154294746E+00  3.0057113296043E-01
    40  3.9000000000000E-01  1.2042645285461E+00  3.1665203492636E-01
    41  4.0000000000000E-01  1.2342053229465E+00  3.3310467325800E-01
    42  4.1000000000000E-01  1.2622207466606E+00  3.4991867100656E-01
    43  4.2000000000000E-01  1.2881998309630E+00  3.6708274909369E-01
    44  4.3000000000000E-01  1.3120380920465E+00  3.8458471385958E-01
    45  4.4000000000000E-01  1.3336378963043E+00  4.0241144778542E-01
    46  4.5000000000000E-01  1.3529088017586E+00  4.2054890349950E-01
    47  4.6000000000000E-01  1.3697678742098E+00  4.3898210116368E-01
    48  4.7000000000000E-01  1.3841399767655E+00  4.5769512932378E-01
    49  4.8000000000000E-01  1.3959580315028E+00  4.7667114929371E-01
    50  4.9000000000000E-01  1.4051632521217E+00  4.9589240312868E-01
    51  5.0000000000000E-01  1.4117053465519E+00  5.1534022522850E-01
    52  5.1000000000000E-01  1.4155426885975E+00  5.3499505759643E-01
    53  5.2000000000000E-01  1.4166424578191E+00  5.5483646876395E-01
    54  5.3000000000000E-01  1.4149807469874E+00  5.7484317637591E-01
    55  5.4000000000000E-01  1.4105426365708E+00  5.9499307341488E-01
    56  5.5000000000000E-01  1.4033222358588E+00  6.1526325802728E-01
    57  5.6000000000000E-01  1.3933226904661E+00  6.3563006689810E-01
    58  5.7000000000000E-01  1.3805561561035E+00  6.5606911210505E-01
    59  5.8000000000000E-01  1.3650437386523E+00  6.7655532136698E-01
    60  5.9000000000000E-01  1.3468154007257E+00  6.9706298158614E-01
    61  6.0000000000000E-01  1.3259098350513E+00  7.1756578556815E-01
    62  6.1000000000000E-01  1.3023743051564E+00  7.3803688178900E-01
    63  6.2000000000000E-01  1.2762644539909E+00  7.5844892706363E-01
    64  6.3000000000000E-01  1.2476440812624E+00  7.7877414195687E-01
    65  6.4000000000000E-01  1.2165848904111E+00  7.9898436876400E-01
    66  6.5000000000000E-01  1.1831662062842E+00  8.1905113187583E-01
    67  6.6000000000000E-01  1.1474746647132E+00  8.3894570033090E-01
    68  6.7000000000000E-01  1.1096038753238E+00  8.5863915234663E-01
    69  6.8000000000000E-01  1.0696540590354E+00  8.7810244161097E-01
    70  6.9000000000000E-01  1.0277316618263E+00  8.9730646510663E-01
    71  7.0000000000000E-01  9.8394894644910E-01  9.1622213223221E-01
    72  7.1000000000000E-01  9.3842356388604E-01  9.3482043497662E-01
    73  7.2000000000000E-01  8.9127810642529E-01  9.5307251889784E-01
    74  7.3000000000000E-01  8.4263964432512E-01  9.7094975465154E-01
    75  7.4000000000000E-01  7.9263924810538E-01  9.8842380981135E-01
    76  7.5000000000000E-01  7.4141149856939E-01  1.0054667207202E+00
    77  7.6000000000000E-01  6.8909398671200E-01  1.0220509641106E+00