W     ONCVPSP-4.0.1  r_core=   2.35088   2.49581   2.51078   2.55625
     74.0000     14.0000      210704    zatom,zion,pspd
     8      11   3     4   600     0    pspcod,pspxc,lmax,lloc,mmax,r2well
  5.99000000  5.00000000  0.00000000    rchrg fchrg qchrg
     2     2     2     2     0    nproj
     1     1           extension_switch
   0                         1.7239881794690E+00 -1.2860304299092E+00
     1  0.0000000000000E+00 -4.6405657094795E-12  2.2953861034125E-13
     2  1.0000000000000E-02  5.1490209979413E-02  1.8736246519143E-02
     3  2.0000000000000E-02  1.0289137531321E-01  3.7468490643566E-02
     4  3.0000000000000E-02  1.5411462893343E-01  5.6192724335927E-02
     5  4.0000000000000E-02  2.0507145851176E-01  7.4904928295003E-02
     6  5.0000000000000E-02  2.5567388279161E-01  9.3601066377113E-02
     7  6.0000000000000E-02  3.0583462667787E-01  1.1227708008141E-01
     8  7.0000000000000E-02  3.5546729467605E-01  1.3092888312008E-01
     9  8.0000000000000E-02  4.0448654227650E-01  1.4955235609424E-01
    10  9.0000000000000E-02  4.5280824488563E-01  1.6814334129608E-01
    11  1.0000000000000E-01  5.0034966391258E-01  1.8669763765741E-01
    12  1.1000000000000E-01  5.4702960962793E-01  2.0521099586443E-01
    13  1.2000000000000E-01  5.9276860041996E-01  2.2367911365811E-01
    14  1.3000000000000E-01  6.3748901808388E-01  2.4209763133897E-01
    15  1.4000000000000E-01  6.8111525879064E-01  2.6046212749470E-01
    16  1.5000000000000E-01  7.2357387939373E-01  2.7876811496830E-01
    17  1.6000000000000E-01  7.6479373874543E-01  2.9701103708379E-01
    18  1.7000000000000E-01  8.0470613370743E-01  3.1518626414603E-01
    19  1.8000000000000E-01  8.4324492955569E-01  3.3328909023023E-01
    20  1.9000000000000E-01  8.8034668449437E-01  3.5131473027614E-01
    21  2.0000000000000E-01  9.1595076801013E-01  3.6925831750102E-01
    22  2.1000000000000E-01  9.4999947281444E-01  3.8711490114463E-01
    23  2.2000000000000E-01  9.8243812013921E-01  4.0487944455865E-01
    24  2.3000000000000E-01  1.0132151581689E+00  4.2254682365202E-01
    25  2.4000000000000E-01  1.0422822534108E+00  4.4011182570266E-01
    26  2.5000000000000E-01  1.0695943748232E+00  4.5756914854519E-01
    27  2.6000000000000E-01  1.0951098705426E+00  4.7491340014316E-01
    28  2.7000000000000E-01  1.1187905370675E+00  4.9213909855324E-01
    29  2.8000000000000E-01  1.1406016807791E+00  5.0924067228805E-01
    30  2.9000000000000E-01  1.1605121716978E+00  5.2621246108271E-01
    31  3.0000000000000E-01  1.1784944893941E+00  5.4304871706982E-01
    32  3.1000000000000E-01  1.1945247609946E+00  5.5974360636574E-01
    33  3.2000000000000E-01  1.2085827912413E+00  5.7629121107055E-01
    34  3.3000000000000E-01  1.2206520845859E+00  5.9268553168260E-01
    35  3.4000000000000E-01  1.2307198593176E+00  6.0892048992751E-01
    36  3.5000000000000E-01  1.2387770537445E+00  6.2498993200056E-01
    37  3.6000000000000E-01  1.2448183244694E+00  6.4088763221985E-01
    38  3.7000000000000E-01  1.2488420368165E+00  6.5660729708712E-01
    39  3.8000000000000E-01  1.2508502474889E+00  6.7214256975137E-01
    40  3.9000000000000E-01  1.2508486795525E+00  6.8748703486981E-01
    41  4.0000000000000E-01  1.2488466898605E+00  7.0263422385927E-01
    42  4.1000000000000E-01  1.2448572290509E+00  7.1757762053033E-01
    43  4.2000000000000E-01  1.2388967942667E+00  7.3231066709527E-01
    44  4.3000000000000E-01  1.2309853747642E+00  7.4682677053989E-01
    45  4.4000000000000E-01  1.2211463905900E+00  7.6111930934836E-01
    46  4.5000000000000E-01  1.2094066245245E+00  7.7518164056905E-01
    47  4.6000000000000E-01  1.1957961475032E+00  7.8900710720864E-01
    48  4.7000000000000E-01  1.1803482377387E+00  8.0258904594054E-01
    49  4.8000000000000E-01  1.1630992937834E+00  8.1592079511302E-01
    50  4.9000000000000E-01  1.1440887417797E+00  8.2899570304136E-01
    51  5.0000000000000E-01  1.1233589371624E+00  8.4180713656786E-01
    52  5.1000000000000E-01  1.1009550610802E+00  8.5434848987213E-01
    53  5.2000000000000E-01  1.0769250118207E+00  8.6661319351410E-01
    54  5.3000000000000E-01  1.0513192915261E+00  8.7859472369080E-01
    55  5.4000000000000E-01  1.0241908884978E+00  8.9028661168782E-01
    56  5.5000000000000E-01  9.9559515539339E-01  9.0168245350523E-01
    57  5.6000000000000E-01  9.6558968362526E-01  9.1277591963770E-01
    58  5.7000000000000E-01  9.3423417427702E-01  9.2356076498763E-01
    59  5.8000000000000E-01  9.0159030585525E-01  9.3403083888973E-01
    60  5.9000000000000E-01  8.6772159919923E-01  9.4418009522518E-01
    61  6.0000000000000E-01  8.3269327987288E-01  9.5400260260296E-01
    62  6.1000000000000E-01  7.9657213836453E-01  9.6349255458572E-01
    63  6.2000000000000E-01  7.5942638842085E-01  9.7264427993722E-01
    64  6.3000000000000E-01  7.2132552384069E-01  9.8145225286823E-01
    65  6.4000000000000E-01  6.8234017405376E-01  9.8991110325745E-01
    66  6.5000000000000E-01  6.4254195880680E-01  9.9801562682420E-01
    67  6.6000000000000E-01  6.0200334227733E-01  1.0057607952291E+00
    68  6.7000000000000E-01  5.6079748693146E-01  1.0131417660798E+00
    69  6.8000000000000E-01  5.1899810743815E-01  1.0201538928170E+00
    70  6.9000000000000E-01  4.7667932494713E-01  1.0267927344598E+00
    71  7.0000000000000E-01  4.3391552203240E-01  1.0330540651841E+00
    72  7.1000000000000E-01  3.9078119859669E-01  1.0389338837139E+00
    73  7.2000000000000E-01  3.4735082902570E-01  1.0444284225011E+00
    74  7.3000000000000E-01  3.0369872087347E-01  1.0495341566718E+00
    75  7.4000000000000E-01  2.5989887535210E-01  1.0542478127175E+00
    76  7.5000000000000E-01  2.1602484989112E-01  1.0585663769090E+00
    77  7.6000000000000E-01  1.7214962302249E-01  1.0624871034124E+00
    78  7.7000000000000E-01  1.2834546183827E-01  1.0660075220860E+00
    79  7.8000000000000E-01  8.4683792258372E-02  1.0691254459388E+00
    80  7.9000000000000E-01  4.1235072335586E-02  1.0718389782307E+00
    81  8.0000000000000E-01 -1.9313311846811E-03  1.0741465191953E+00
    82  8.1000000000000E-01 -4.4747262843456E-02  1.0760467723685E+00
    83  8.2000000000000E-01 -8.7145894789930E-02  1.0775387505037E+00
    84  8.3000000000000E-01 -1.2906183926076E-01  1.0786217810591E+00
    85  8.4000000000000E-01 -1.7043125704282E-01  1.0792955112399E+00
    86  8.5000000000000E-01 -2.1119196175631E-01  1.0795599125812E+00
    87  8.6000000000000E-01 -2.5128351980654E-01  1.0794152850573E+00
    88  8.7000000000000E-01 -2.9064734586355E-01  1.0788622607052E+00
    89  8.8000000000000E-01 -3.2922679374033E-01  1.0779018067494E+00
    90  8.9000000000000E-01 -3.6696724255143E-01  1.0765352282166E+00
    91  9.0000000000000E-01 -4.0381617804480E-01  1.0747641700321E+00
    92  9.1000000000000E-01 -4.3972326901099E-01  1.0725906185866E+00
    93  9.2000000000000E-01 -4.7464043868467E-01  1.0700169027675E+00
    94  9.3000000000000E-01 -5.0852193106420E-01  1.0670456944458E+00
    95  9.4000000000000E-01 -5.4132437208595E-01  1.0636800084150E+00
    96  9.5000000000000E-01 -5.7300682560009E-01  1.0599232017758E+00
    97  9.6000000000000E-01 -6.0353084410565E-01  1.0557789727643E+00
    98  9.7000000000000E-01 -6.3286051421184E-01  1.0512513590194E+00
    99  9.8000000000000E-01 -6.6096249680358E-01  1.0463447352913E+00
   100  9.9000000000000E-01 -6.8780606189788E-01  1.0410638105882E+00
   101  1.0000000000000E+00 -7.1336311818804E-01  1.0354136247635E+00
   102  1.0100000000000E+00 -7.3760823728124E-01  1.0293995445465E+00
   103  1.0200000000000E+00 -7.6051867264439E-01  1.0230272590189E+00
   104  1.0300000000000E+00 -7.8207437328171E-01  1.0163027745420E+00
   105  1.0400000000000E+00 -8.0225799217602E-01  1.0092324091410E+00
   106  1.0500000000000E+00 -8.2105488953388E-01  1.0018227863530E+00
   107  1.0600000000000E+00 -8.3845313088273E-01  9.9408082854646E-01
   108  1.0700000000000E+00 -8.5444348007578E-01  9.8601374972152E-01
   109  1.0800000000000E+00 -8.6901938726795E-01  9.7762904780210E-01
   110  1.0900000000000E+00 -8.8217697193334E-01  9.6893449643020E-01
   111  1.1000000000000E+00 -8.9391500100156E-01  9.5993813627557E-01
   112  1.1100000000000E+00 -9.0423486219710E-01  9.5064826587406E-01
   113  1.1200000000000E+00 -9.1314053267234E-01  9.4107343200924E-01
   114  1.1300000000000E+00 -9.2063854303117E-01  9.3122241965285E-01
   115  1.1400000000000E+00 -9.2673793684595E-01  9.2110424148068E-01
   116  1.1500000000000E+00 -9.3145022577686E-01  9.1072812698121E-01
   117  1.1600000000000E+00 -9.3478934040796E-01  9.0010351117565E-01
   118  1.1700000000000E+00 -9.3677157691978E-01  8.8924002296833E-01
   119  1.1800000000000E+00 -9.3741553972395E-01  8.7814747314792E-01
   120  1.1900000000000E+00 -9.3674208018976E-01  8.6683584205996E-01
   121  1.2000000000000E+00 -9.3477423159830E-01  8.5531526697275E-01
   122  1.2100000000000E+00 -9.3153714046405E-01  8.4359602915881E-01
   123  1.2200000000000E+00 -9.2705799436860E-01  8.3168854071483E-01
   124  1.2300000000000E+00 -9.2136594645590E-01  8.1960333114418E-01
   125  1.2400000000000E+00 -9.1449203674240E-01  8.0735103372581E-01
   126  1.2500000000000E+00 -9.0646911039998E-01  7.9494237169474E-01
   127  1.2600000000000E+00 -8.9733173317369E-01  7.8238814425909E-01
   128  1.2700000000000E+00 -8.8711610410000E-01  7.6969921247972E-01
   129  1.2800000000000E+00 -8.7585996569536E-01  7.5688648503827E-01
   130  1.2900000000000E+00 -8.6360251178863E-01  7.4396090392036E-01
   131  1.3000000000000E+00 -8.5038429317418E-01  7.3093343004035E-01
   132  1.3100000000000E+00 -8.3624712126643E-01  7.1781502883494E-01
   133  1.3200000000000E+00 -8.2123396993945E-01  7.0461665585247E-01
   134  1.3300000000000E+00 -8.0538887573870E-01  6.9134924236531E-01
   135  1.3400000000000E+00 -7.8875683665491E-01  6.7802368103252E-01
   136  1.3500000000000E+00 -7.7138370965307E-01  6.6465081164019E-01
   137  1.3600000000000E+00 -7.5331610715210E-01  6.5124140694654E-01
   138  1.3700000000000E+00 -7.3460129265329E-01  6.3780615865902E-01
   139  1.3800000000000E+00 -7.1528707571816E-01  6.2435566357032E-01
   140  1.3900000000000E+00 -6.9542170649822E-01  6.1090040987992E-01
   141  1.4000000000000E+00 -6.7505377002124E-01  5.9745076372775E-01
   142  1.4100000000000E+00 -6.5423208044029E-01  5.8401695596586E-01
   143  1.4200000000000E+00 -6.3300557545325E-01  5.7060906919395E-01
   144  1.4300000000000E+00 -6.1142321110156E-01  5.5723702508385E-01
   145  1.4400000000000E+00 -5.8953385715806E-01  5.4391057201770E-01
   146  1.4500000000000E+00 -5.6738619331423E-01  5.3063927306391E-01
   147  1.4600000000000E+00 -5.4502860637740E-01  5.1743249431454E-01
   148  1.4700000000000E+00 -5.2250908868854E-01  5.0429939360668E-01
   149  1.4800000000000E+00 -4.9987513797063E-01  4.9124890965025E-01
   150  1.4900000000000E+00 -4.7717365881703E-01  4.7828975158319E-01
   151  1.5000000000000E+00 -4.5445086602781E-01  4.6543038897479E-01
   152  1.5100000000000E+00 -4.3175219000061E-01  4.5267904229658E-01
   153  1.5200000000000E+00 -4.0912218438037E-01  4.4004367387960E-01
   154  1.5300000000000E+00 -3.8660443616984E-01  4.2753197937562E-01
   155  1.5400000000000E+00 -3.6424147849981E-01  4.1515137973904E-01
   156  1.5500000000000E+00 -3.4207470625458E-01  4.0290901374510E-01
   157  1.5600000000000E+00 -3.2014429474397E-01  3.9081173105898E-01
   158  1.5700000000000E+00 -2.9848912160925E-01  3.7886608586898E-01
   159  1.5800000000000E+00 -2.7714669214476E-01  3.6707833109629E-01
   160  1.5900000000000E+00 -2.5615306821191E-01  3.5545441319213E-01
   161  1.6000000000000E+00 -2.3554280091609E-01  3.4399996753206E-01
   162  1.6100000000000E+00 -2.1534886721028E-01  3.3272031441617E-01
   163  1.6200000000000E+00 -1.9560261058227E-01  3.2162045568211E-01
   164  1.6300000000000E+00 -1.7633368597453E-01  3.1070507193707E-01
   165  1.6400000000000E+00 -1.5757000907750E-01  2.9997852041322E-01
   166  1.6500000000000E+00 -1.3933771012860E-01  2.8944483344981E-01
   167  1.6600000000000E+00 -1.2166109233953E-01  2.7910771760391E-01
   168  1.6700000000000E+00 -1.0456259506503E-01  2.6897055339020E-01
   169  1.6800000000000E+00 -8.8062761815576E-02  2.5903639564891E-01
   170  1.6900000000000E+00 -7.2180213205836E-02  2.4930797453978E-01
   171  1.7000000000000E+00 -5.6931624919468E-02  2.3978769715822E-01
   172  1.7100000000000E+00 -4.2331710758785E-02  2.3047764976869E-01
   173  1.7200000000000E+00 -2.8393210835908E-02  2.2137960064895E-01
   174  1.7300000000000E+00 -1.5126884949181E-02  2.1249500353724E-01
   175  1.7400000000000E+00 -2.5415111757590E-03  2.0382500167330E-01
   176  1.7500000000000E+00  9.3561103021813E-03  1.9537043242279E-01
   177  1.7600000000000E+00  2.0561148133724E-02  1.8713183247309E-01
   178  1.7700000000000E+00  3.1070725508173E-02  1.7910944358748E-01
   179  1.7800000000000E+00  4.0883900660956E-02  1.7130321890321E-01
   180  1.7900000000000E+00  5.0001642215166E-02  1.6371282975775E-01
   181  1.8000000000000E+00  5.8426799412010E-02  1.5633767302632E-01
   182  1.8100000000000E+00  6.6164067298032E-02  1.4917687895256E-01
   183  1.8200000000000E+00  7.3219946951708E-02  1.4222931945309E-01
   184  1.8300000000000E+00  7.9602700846734E-02  1.3549361687559E-01
   185  1.8400000000000E+00  8.5322303464028E-02  1.2896815318889E-01
   186  1.8500000000000E+00  9.0390387278987E-02  1.2265107958260E-01
   187  1.8600000000000E+00  9.4820184265155E-02  1.1654032645290E-01
   188  1.8700000000000E+00  9.8626463069460E-02  1.1063361374995E-01
   189  1.8800000000000E+00  1.0182546202837E-01  1.0492846166180E-01
   190  1.8900000000000E+00  1.0443481820796E-01  9.9422201608630E-02
   191  1.9000000000000E+00  1.0647349266416E-01  9.4111987520592E-02
   192  1.9100000000000E+00  1.0796169213240E-01  8.8994807371600E-02
   193  1.9200000000000E+00  1.0892078736837E-01  8.4067494941021E-02
   194  1.9300000000000E+00  1.0937322837327E-01  7.9326741774498E-02
   195  1.9400000000000E+00  1.0934245674869E-01  7.4769109314697E-02
   196  1.9500000000000E+00  1.0885281543656E-01  7.0391041172318E-02
   197  1.9600000000000E+00  1.0792945610986E-01  6.6188875507380E-02
   198  1.9700000000000E+00  1.0659824448892E-01  6.2158857490467E-02
   199  1.9800000000000E+00  1.0488566386703E-01  5.8297151813416E-02
   200  1.9900000000000E+00  1.0281871713623E-01  5.4599855218817E-02
   201  2.0000000000000E+00  1.0042482761161E-01  5.1063009017565E-02
   202  2.0100000000000E+00  9.7731738957927E-02  4.7682611563768E-02
   203  2.0200000000000E+00  9.4767414527728E-02  4.4454630656366E-02
   204  2.0300000000000E+00  9.1559936423994E-02  4.1375015836970E-02
   205  2.0400000000000E+00  8.8137404603644E-02  3.8439710553668E-02
   206  2.0500000000000E+00  8.4527836340163E-02  3.5644664160854E-02
   207  2.0600000000000E+00  8.0759066364719E-02  3.2985843725500E-02
   208  2.0700000000000E+00  7.6858648005057E-02  3.0459245610755E-02
   209  2.0800000000000E+00  7.2853755640507E-02  2.8060906808268E-02
   210  2.0900000000000E+00  6.8771088789295E-02  2.5786915991230E-02
   211  2.1000000000000E+00  6.4636778141030E-02  2.3633424260781E-02
   212  2.1100000000000E+00  6.0476293843080E-02  2.1596655559197E-02
   213  2.1200000000000E+00  5.6314356344047E-02  1.9672916724024E-02
   214  2.1300000000000E+00  5.2174850091180E-02  1.7858607158213E-02
   215  2.1400000000000E+00  4.8080740371554E-02  1.6150228092197E-02
   216  2.1500000000000E+00  4.4053993577479E-02  1.4544391414899E-02
   217  2.1600000000000E+00  4.0115501167949E-02  1.3037828051624E-02
   218  2.1700000000000E+00  3.6285007586584E-02  1.1627395867969E-02
   219  2.1800000000000E+00  3.2581042386452E-02  1.0310087079901E-02
   220  2.1900000000000E+00  2.9020857341519E-02  9.0830353143357E-03
   221  2.2000000000000E+00  2.5620365391285E-02  7.9435212895382E-03
   222  2.2100000000000E+00  2.2394085564453E-02  6.8889783691120E-03
   223  2.2200000000000E+00  1.9355116286896E-02  5.9170035209641E-03
   224  2.2300000000000E+00  1.6515043989912E-02  5.0253516268632E-03
   225  2.2400000000000E+00  1.3883494183745E-02  4.2118081568583E-03
   226  2.2500000000000E+00  1.1467993765826E-02  3.4741497166317E-03
   227  2.2600000000000E+00  9.2758212957223E-03  2.8107156432114E-03
   228  2.2700000000000E+00  7.3129289888788E-03  2.2201154736760E-03
   229  2.2800000000000E+00  5.5834069491276E-03  1.7010809471072E-03
   230  2.2900000000000E+00  4.0896706607933E-03  1.2525174331913E-03
   231  2.3000000000000E+00  2.8324260069835E-03  8.7349331071957E-04
   232  2.3100000000000E+00  1.8107726157072E-03  5.6327030250024E-04
   233  2.3200000000000E+00  1.0220929800097E-03  3.2125973115367E-04
   234  2.3300000000000E+00  4.5863242179492E-04  1.4587996979881E-04
   235  2.3400000000000E+00  1.2828119713047E-04  4.1399956683182E-05
   236  2.3500000000000E+00  4.0314270010851E-06  1.3292132564453E-06
   237  2.3600000000000E+00 -7.2916136712368E-06 -2.3992105171068E-06
   238  2.3700000000000E+00  2.9016622671288E-06  9.4330937067295E-07
   239  2.38 -0. -0.
   240  2.39 -0. -0.
   241  2.40  0. -0.
   242  2.41  0.  0.
   243  2.42  0.  0.
   244  2.43  0.  0.
   245  2.44  0.  0.
   246  2.45  0.  0.
   247  2.46  0.  0.
   248  2.47  0.  0.
   249  2.48  0.  0.
   250  2.49  0.  0.
   251  2.50  0.  0.
   252  2.51  0.  0.
   253  2.52  0.  0.
   254  2.53  0.  0.
   255  2.54  0.  0.
   256  2.55  0.  0.
   257  2.56  0.  0.
   258  2.57  0.  0.
   259  2.58  0.  0.
   260  2.59  0.  0.
   261  2.60  0.  0.
   262  2.61  0.  0.
   263  2.62  0.  0.
   264  2.63  0.  0.
   265  2.64  0.  0.
   266  2.65  0.  0.
   267  2.66  0.  0.
   268  2.67  0.  0.
   269  2.68  0.  0.
   270  2.69  0.  0.
   271  2.70  0.  0.
   272  2.71  0.  0.
   273  2.72  0.  0.
   274  2.73  0.  0.
   275  2.74  0.  0.
   276  2.75  0.  0.
   277  2.76  0.  0.
   278  2.77  0.  0.
   279  2.78  0.  0.
   280  2.79  0.  0.
   281  2.80  0.  0.
   282  2.81  0.  0.
   283  2.82  0.  0.
   284  2.83  0.  0.
   285  2.84  0.  0.
   286  2.85  0.  0.
   287  2.86  0.  0.
   288  2.87  0.  0.
   289  2.88  0.  0.
   290  2.89  0.  0.
   291  2.90  0.  0.
   292  2.91  0.  0.
   293  2.92  0.  0.
   294  2.93  0.  0.
   295  2.94  0.  0.
   296  2.95  0.  0.
   297  2.96  0.  0.
   298  2.97  0.  0.
   299  2.98  0.  0.
   300  2.99  0.  0.
   301  3.00  0.  0.
   302  3.01  0.  0.
   303  3.02  0.  0.
   304  3.03  0.  0.
   305  3.04  0.  0.
   306  3.05  0.  0.
   307  3.06  0.  0.
   308  3.07  0.  0.
   309  3.08  0.  0.
   310  3.09  0.  0.
   311  3.10  0.  0.
   312  3.11  0.  0.
   313  3.12  0.  0.
   314  3.13  0.  0.
   315  3.14  0.  0.
   316  3.15  0.  0.
   317  3.16  0.  0.
   318  3.17  0.  0.
   319  3.18  0.  0.
   320  3.19  0.  0.
   321  3.20  0.  0.
   322  3.21  0.  0.
   323  3.22  0.  0.
   324  3.23  0.  0.
   325  3.24  0.  0.
   326  3.25  0.  0.
   327  3.26  0.  0.
   328  3.27  0.  0.
   329  3.28  0.  0.
   330  3.29  0.  0.
   331  3.30  0.  0.
   332  3.31  0.  0.
   333  3.32  0.  0.
   334  3.33  0.  0.
   335  3.34  0.  0.
   336  3.35  0.  0.
   337  3.36  0.  0.
   338  3.37  0.  0.
   339  3.38  0.  0.
   340  3.39  0.  0.
   341  3.40  0.  0.
   342  3.41  0.  0.
   343  3.42  0.  0.
   344  3.43  0.  0.
   345  3.44  0.  0.
   346  3.45  0.  0.
   347  3.46  0.  0.
   348  3.47  0.  0.
   349  3.48  0.  0.
   350  3.49  0.  0.
   351  3.50  0.  0.
   352  3.51  0.  0.
   353  3.52  0.  0.
   354  3.53  0.  0.
   355  3.54  0.  0.
   356  3.55  0.  0.
   357  3.56  0.  0.
   358  3.57  0.  0.
   359  3.58  0.  0.
   360  3.59  0.  0.
   361  3.60  0.  0.
   362  3.61  0.  0.
   363  3.62  0.  0.
   364  3.63  0.  0.
   365  3.64  0.  0.
   366  3.65  0.  0.
   367  3.66  0.  0.
   368  3.67  0.  0.
   369  3.68  0.  0.
   370  3.69  0.  0.
   371  3.70  0.  0.
   372  3.71  0.  0.
   373  3.72  0.  0.
   374  3.73  0.  0.
   375  3.74  0.  0.
   376  3.75  0.  0.
   377  3.76  0.  0.
   378  3.77  0.  0.
   379  3.78  0.  0.
   380  3.79  0.  0.
   381  3.80  0.  0.
   382  3.81  0.  0.
   383  3.82  0.  0.
   384  3.83  0.  0.
   385  3.84  0.  0.
   386  3.85  0.  0.
   387  3.86  0.  0.
   388  3.87  0.  0.
   389  3.88  0.  0.
   390  3.89  0.  0.
   391  3.90  0.  0.
   392  3.91  0.  0.
   393  3.92  0.  0.
   394  3.93  0.  0.
   395  3.94  0.  0.
   396  3.95  0.  0.
   397  3.96  0.  0.
   398  3.97  0.  0.
   399  3.98  0.  0.
   400  3.99  0.  0.
   401  4.00  0.  0.
   402  4.01  0.  0.
   403  4.02  0.  0.
   404  4.03  0.  0.
   405  4.04  0.  0.
   406  4.05  0.  0.
   407  4.06  0.  0.
   408  4.07  0.  0.
   409  4.08  0.  0.
   410  4.09  0.  0.
   411  4.10  0.  0.
   412  4.11  0.  0.
   413  4.12  0.  0.
   414  4.13  0.  0.
   415  4.14  0.  0.
   416  4.15  0.  0.
   417  4.16  0.  0.
   418  4.17  0.  0.
   419  4.18  0.  0.
   420  4.19  0.  0.
   421  4.20  0.  0.
   422  4.21  0.  0.
   423  4.22  0.  0.
   424  4.23  0.  0.
   425  4.24  0.  0.
   426  4.25  0.  0.
   427  4.26  0.  0.
   428  4.27  0.  0.
   429  4.28  0.  0.
   430  4.29  0.  0.
   431  4.30  0.  0.
   432  4.31  0.  0.
   433  4.32  0.  0.
   434  4.33  0.  0.
   435  4.34  0.  0.
   436  4.35  0.  0.
   437  4.36  0.  0.
   438  4.37  0.  0.
   439  4.38  0.  0.
   440  4.39  0.  0.
   441  4.40  0.  0.
   442  4.41  0.  0.
   443  4.42  0.  0.
   444  4.43  0.  0.
   445  4.44  0.  0.
   446  4.45  0.  0.
   447  4.46  0.  0.
   448  4.47  0.  0.
   449  4.48  0.  0.
   450  4.49  0.  0.
   451  4.50  0.  0.
   452  4.51  0.  0.
   453  4.52  0.  0.
   454  4.53  0.  0.
   455  4.54  0.  0.
   456  4.55  0.  0.
   457  4.56  0.  0.
   458  4.57  0.  0.
   459  4.58  0.  0.
   460  4.59  0.  0.
   461  4.60  0.  0.
   462  4.61  0.  0.
   463  4.62  0.  0.
   464  4.63  0.  0.
   465  4.64  0.  0.
   466  4.65  0.  0.
   467  4.66  0.  0.
   468  4.67  0.  0.
   469  4.68  0.  0.
   470  4.69  0.  0.
   471  4.70  0.  0.
   472  4.71  0.  0.
   473  4.72  0.  0.
   474  4.73  0.  0.
   475  4.74  0.  0.
   476  4.75  0.  0.
   477  4.76  0.  0.
   478  4.77  0.  0.
   479  4.78  0.  0.
   480  4.79  0.  0.
   481  4.80  0.  0.
   482  4.81  0.  0.
   483  4.82  0.  0.
   484  4.83  0.  0.
   485  4.84  0.  0.
   486  4.85  0.  0.
   487  4.86  0.  0.
   488  4.87  0.  0.
   489  4.88  0.  0.
   490  4.89  0.  0.
   491  4.90  0.  0.
   492  4.91  0.  0.
   493  4.92  0.  0.
   494  4.93  0.  0.
   495  4.94  0.  0.
   496  4.95  0.  0.
   497  4.96  0.  0.
   498  4.97  0.  0.
   499  4.98  0.  0.
   500  4.99  0.  0.
   501  5.00  0.  0.
   502  5.01  0.  0.
   503  5.02  0.  0.
   504  5.03  0.  0.
   505  5.04  0.  0.
   506  5.05  0.  0.
   507  5.06  0.  0.
   508  5.07  0.  0.
   509  5.08  0.  0.
   510  5.09  0.  0.
   511  5.10  0.  0.
   512  5.11  0.  0.
   513  5.12  0.  0.
   514  5.13  0.  0.
   515  5.14  0.  0.
   516  5.15  0.  0.
   517  5.16  0.  0.
   518  5.17  0.  0.
   519  5.18  0.  0.
   520  5.19  0.  0.
   521  5.20  0.  0.
   522  5.21  0.  0.
   523  5.22  0.  0.
   524  5.23  0.  0.
   525  5.24  0.  0.
   526  5.25  0.  0.
   527  5.26  0.  0.
   528  5.27  0.  0.
   529  5.28  0.  0.
   530  5.29  0.  0.
   531  5.30  0.  0.
   532  5.31  0.  0.
   533  5.32  0.  0.
   534  5.33  0.  0.
   535  5.34  0.  0.
   536  5.35  0.  0.
   537  5.36  0.  0.
   538  5.37  0.  0.
   539  5.38  0.  0.
   540  5.39  0.  0.
   541  5.40  0.  0.
   542  5.41  0.  0.
   543  5.42  0.  0.
   544  5.43  0.  0.
   545  5.44  0.  0.
   546  5.45  0.  0.
   547  5.46  0.  0.
   548  5.47  0.  0.
   549  5.48  0.  0.
   550  5.49  0.  0.
   551  5.50  0.  0.
   552  5.51  0.  0.
   553  5.52  0.  0.
   554  5.53  0.  0.
   555  5.54  0.  0.
   556  5.55  0.  0.
   557  5.56  0.  0.
   558  5.57  0.  0.
   559  5.58  0.  0.
   560  5.59  0.  0.
   561  5.60  0.  0.
   562  5.61  0.  0.
   563  5.62  0.  0.
   564  5.63  0.  0.
   565  5.64  0.  0.
   566  5.65  0.  0.
   567  5.66  0.  0.
   568  5.67  0.  0.
   569  5.68  0.  0.
   570  5.69  0.  0.
   571  5.70  0.  0.
   572  5.71  0.  0.
   573  5.72  0.  0.
   574  5.73  0.  0.
   575  5.74  0.  0.
   576  5.75  0.  0.
   577  5.76  0.  0.
   578  5.77  0.  0.
   579  5.78  0.  0.
   580  5.79  0.  0.
   581  5.80  0.  0.
   582  5.81  0.  0.
   583  5.82  0.  0.
   584  5.83  0.  0.
   585  5.84  0.  0.
   586  5.85  0.  0.
   587  5.86  0.  0.
   588  5.87  0.  0.
   589  5.88  0.  0.
   590  5.89  0.  0.
   591  5.90  0.  0.
   592  5.91  0.  0.
   593  5.92  0.  0.
   594  5.93  0.  0.
   595  5.94  0.  0.
   596  5.95  0.  0.
   597  5.96  0.  0.
   598  5.97  0.  0.
   599  5.98  0.  0.
   600  5.99  0.  0.
   1                        -1.5381841276497E+00 -5.5416397505891E-02
     1  0.0000000000000E+00  2.0065719918971E-12 -3.0355603447552E-11
     2  1.0000000000000E-02  3.8115114828932E-04 -1.1881242833130E-04
     3  2.0000000000000E-02  1.5241110710173E-03 -4.7516824201012E-04
     4  3.0000000000000E-02  3.4273998722583E-03 -1.0688238978176E-03
     5  4.0000000000000E-02  6.0885532927463E-03 -1.8993763765101E-03
     6  5.0000000000000E-02  9.5041260570779E-03 -2.9662674541699E-03
     7  6.0000000000000E-02  1.3669696552449E-02 -4.2687895666398E-03
     8  7.0000000000000E-02  1.8579872831552E-02 -5.8060931537495E-03
     9  8.0000000000000E-02  2.4228299930263E-02 -7.5771953396910E-03
    10  9.0000000000000E-02  3.0607668488663E-02 -9.5809897761244E-03
    11  1.0000000000000E-01  3.7709724662009E-02 -1.1816257449791E-02
    12  1.1000000000000E-01  4.5525281306269E-02 -1.4281678230451E-02
    13  1.2000000000000E-01  5.4044230420972E-02 -1.6975842913920E-02
    14  1.3000000000000E-01  6.3255556830248E-02 -1.9897265495499E-02
    15  1.4000000000000E-01  7.3147353081171E-02 -2.3044395393556E-02
    16  1.5000000000000E-01  8.3706835536770E-02 -2.6415629329969E-02
    17  1.6000000000000E-01  9.4920361639418E-02 -3.0009322565112E-02
    18  1.7000000000000E-01  1.0677344831873E-01 -3.3823799179252E-02
    19  1.8000000000000E-01  1.1925079151655E-01 -3.7857361090903E-02
    20  1.9000000000000E-01  1.3233628680023E-01 -4.2108295503458E-02
    21  2.0000000000000E-01  1.4601305103394E-01 -4.6574880478599E-02
    22  2.1000000000000E-01  1.6026344507654E-01 -5.1255388343444E-02
    23  2.2000000000000E-01  1.7506909747332E-01 -5.6148086652504E-02
    24  2.3000000000000E-01  1.9041092910775E-01 -6.1251236442208E-02
    25  2.4000000000000E-01  2.0626917877838E-01 -6.6563087537396E-02
    26  2.5000000000000E-01  2.2262342966491E-01 -7.2081870692225E-02
    27  2.6000000000000E-01  2.3945263664697E-01 -7.7805786377363E-02
    28  2.7000000000000E-01  2.5673515443758E-01 -8.3732990054261E-02
    29  2.8000000000000E-01  2.7444876649338E-01 -8.9861573812590E-02
    30  2.9000000000000E-01  2.9257071466235E-01 -9.6189544282149E-02
    31  3.0000000000000E-01  3.1107772952948E-01 -1.0271479676995E-01
    32  3.1000000000000E-01  3.2994606142017E-01 -1.0943508561263E-01
    33  3.2000000000000E-01  3.4915151202076E-01 -1.1634799077833E-01
    34  3.3000000000000E-01  3.6866946657489E-01 -1.2345088079329E-01
    35  3.4000000000000E-01  3.8847492661441E-01 -1.3074087211523E-01
    36  3.5000000000000E-01  4.0854254318275E-01 -1.3821478511801E-01
    37  3.6000000000000E-01  4.2884665050877E-01 -1.4586909689895E-01
    38  3.7000000000000E-01  4.4936130008854E-01 -1.5369989116265E-01
    39  3.8000000000000E-01  4.7006029513242E-01 -1.6170280548067E-01
    40  3.9000000000000E-01  4.9091722533462E-01 -1.6987297626749E-01
    41  4.0000000000000E-01  5.1190550192206E-01 -1.7820498185422E-01
    42  4.1000000000000E-01  5.3299839293941E-01 -1.8669278408064E-01
    43  4.2000000000000E-01  5.5416905872683E-01 -1.9532966886198E-01
    44  4.3000000000000E-01  5.7539058754703E-01 -2.0410818622010E-01
    45  4.4000000000000E-01  5.9663603131779E-01 -2.1302009029916E-01
    46  4.5000000000000E-01  6.1787844140626E-01 -2.2205627991206E-01
    47  4.6000000000000E-01  6.3909090444117E-01 -2.3120674018690E-01
    48  4.7000000000000E-01  6.6024657809870E-01 -2.4046048590064E-01
    49  4.8000000000000E-01  6.8131872681806E-01 -2.4980550710153E-01
    50  4.9000000000000E-01  7.0228075740219E-01 -2.5922871763076E-01
    51  5.0000000000000E-01  7.2310625445932E-01 -2.6871590715824E-01
    52  5.1000000000000E-01  7.4376901564067E-01 -2.7825169734645E-01
    53  5.2000000000000E-01  7.6424308662946E-01 -2.8781950275082E-01
    54  5.3000000000000E-01  7.8450279583645E-01 -2.9740149705307E-01
    55  5.4000000000000E-01  8.0452278875681E-01 -3.0697858520831E-01
    56  5.5000000000000E-01  8.2427806194309E-01 -3.1653038206400E-01
    57  5.6000000000000E-01  8.4374399654902E-01 -3.2603519798268E-01
    58  5.7000000000000E-01  8.6289639139845E-01 -3.3547003196698E-01
    59  5.8000000000000E-01  8.8171149553394E-01 -3.4481057274959E-01
    60  5.9000000000000E-01  9.0016604019918E-01 -3.5403120826729E-01
    61  6.0000000000000E-01  9.1823727020936E-01 -3.6310504389273E-01
    62  6.1000000000000E-01  9.3590297466371E-01 -3.7200392974564E-01
    63  6.2000000000000E-01  9.5314151695416E-01 -3.8069849735055E-01
    64  6.3000000000000E-01  9.6993186402439E-01 -3.8915820584931E-01
    65  6.4000000000000E-01  9.8625361483327E-01 -3.9735139791448E-01
    66  6.5000000000000E-01  1.0020870279772E+00 -4.0524536544441E-01
    67  6.6000000000000E-01  1.0174130484256E+00 -4.1280642505414E-01
    68  6.7000000000000E-01  1.0322133333246E+00 -4.2000000330586E-01
    69  6.8000000000000E-01  1.0464702768241E+00 -4.2679073155241E-01
    70  6.9000000000000E-01  1.0601670338829E+00 -4.3314255019500E-01
    71  7.0000000000000E-01  1.0732875430093E+00 -4.3901882208427E-01
    72  7.1000000000000E-01  1.0858165478933E+00 -4.4438245472107E-01
    73  7.2000000000000E-01  1.0977396178868E+00 -4.4919603084201E-01
    74  7.3000000000000E-01  1.1090431672925E+00 -4.5342194690465E-01
    75  7.4000000000000E-01  1.1197144734182E+00 -4.5702255891748E-01