Re    ONCVPSP-4.0.1  r_core=   2.40430   2.58324   2.59874   2.49217
     75.0000     15.0000      220727    zatom,zion,pspd
     8      11   3     4   600     0    pspcod,pspxc,lmax,lloc,mmax,r2well
  5.99000000  4.00000000  0.00000000    rchrg fchrg qchrg
     2     2     2     2     0    nproj
     1     1           extension_switch
   0                         2.4680871463660E+00 -1.7366050535505E+00
     1  0.0000000000000E+00 -5.1183501881269E-12  3.4250380309686E-13
     2  1.0000000000000E-02  5.5476398301606E-02  2.1107291134982E-02
     3  2.0000000000000E-02  1.1084592509177E-01  4.2208412793771E-02
     4  3.0000000000000E-02  1.6600193734456E-01  6.3297190237796E-02
     5  4.0000000000000E-02  2.2083824847392E-01  8.4367438231598E-02
     6  5.0000000000000E-02  2.7524935522703E-01  1.0541295586395E-01
     7  6.0000000000000E-02  3.2913066298948E-01  1.2642752145223E-01
     8  7.0000000000000E-02  3.8237870897858E-01  1.4740488755739E-01
     9  8.0000000000000E-02  4.3489138280678E-01  1.6833877613651E-01
    10  9.0000000000000E-02  4.8656814390287E-01  1.8922287385959E-01
    11  1.0000000000000E-01  5.3731023528693E-01  2.1005082761658E-01
    12  1.1000000000000E-01  5.8702089320314E-01  2.3081624024017E-01
    13  1.2000000000000E-01  6.3560555212515E-01  2.5151266646927E-01
    14  1.3000000000000E-01  6.8297204465951E-01  2.7213360917709E-01
    15  1.4000000000000E-01  7.2903079588528E-01  2.9267251588723E-01
    16  1.5000000000000E-01  7.7369501168110E-01  3.1312277560020E-01
    17  1.6000000000000E-01  8.1688086060596E-01  3.3347771595158E-01
    18  1.7000000000000E-01  8.5850764891516E-01  3.5373060072250E-01
    19  1.8000000000000E-01  8.9849798830973E-01  3.7387462772151E-01
    20  1.9000000000000E-01  9.3677795603518E-01  3.9390292705612E-01
    21  2.0000000000000E-01  9.7327724696410E-01  4.1380855981095E-01
    22  2.1000000000000E-01  1.0079293173162E+00  4.3358451714798E-01
    23  2.2000000000000E-01  1.0406715196902E+00  4.5322371984359E-01
    24  2.3000000000000E-01  1.0714452291026E+00  4.7271901827491E-01
    25  2.4000000000000E-01  1.1001959597500E+00  4.9206319286751E-01
    26  2.5000000000000E-01  1.1268734722356E+00  5.1124895501417E-01
    27  2.6000000000000E-01  1.1514318710213E+00  5.3026894847359E-01
    28  2.7000000000000E-01  1.1738296918920E+00  5.4911575125596E-01
    29  2.8000000000000E-01  1.1940299792441E+00  5.6778187800106E-01
    30  2.9000000000000E-01  1.2120003530319E+00  5.8625978285286E-01
    31  3.0000000000000E-01  1.2277130652329E+00  6.0454186283289E-01
    32  3.1000000000000E-01  1.2411450457193E+00  6.2262046171322E-01
    33  3.2000000000000E-01  1.2522779374451E+00  6.4048787438829E-01
    34  3.3000000000000E-01  1.2610981208893E+00  6.5813635174291E-01
    35  3.4000000000000E-01  1.2675967277161E+00  6.7555810601259E-01
    36  3.5000000000000E-01  1.2717696436450E+00  6.9274531663022E-01
    37  3.6000000000000E-01  1.2736175005455E+00  7.0969013655203E-01
    38  3.7000000000000E-01  1.2731456577985E+00  7.2638469905371E-01
    39  3.8000000000000E-01  1.2703641729951E+00  7.4282112498631E-01
    40  3.9000000000000E-01  1.2652877620650E+00  7.5899153047977E-01
    41  4.0000000000000E-01  1.2579357489561E+00  7.7488803508056E-01
    42  4.1000000000000E-01  1.2483320050105E+00  7.9050277030828E-01
    43  4.2000000000000E-01  1.2365048782078E+00  8.0582788861472E-01
    44  4.3000000000000E-01  1.2224871124695E+00  8.2085557272725E-01
    45  4.4000000000000E-01  1.2063157572463E+00  8.3557804535748E-01
    46  4.5000000000000E-01  1.1880320676279E+00  8.4998757925410E-01
    47  4.6000000000000E-01  1.1676813952438E+00  8.6407650757829E-01
    48  4.7000000000000E-01  1.1453130702410E+00  8.7783723457825E-01
    49  4.8000000000000E-01  1.1209802746484E+00  8.9126224653862E-01
    50  4.9000000000000E-01  1.0947399074591E+00  9.0434412297935E-01
    51  5.0000000000000E-01  1.0666524417783E+00  9.1707554807738E-01
    52  5.1000000000000E-01  1.0367817744075E+00  9.2944932228392E-01
    53  5.2000000000000E-01  1.0051950682505E+00  9.4145837410875E-01
    54  5.3000000000000E-01  9.7196258794646E-01  9.5309577204256E-01
    55  5.4000000000000E-01  9.3715752914716E-01  9.6435473658740E-01
    56  5.5000000000000E-01  9.0085584187624E-01  9.7522865236464E-01
    57  5.6000000000000E-01  8.6313604841607E-01  9.8571108026947E-01
    58  5.7000000000000E-01  8.2407905618450E-01  9.9579576964025E-01
    59  5.8000000000000E-01  7.8376796607331E-01  1.0054766704108E+00
    60  5.9000000000000E-01  7.4228787673060E-01  1.0147479452131E+00
    61  6.0000000000000E-01  6.9972568527862E-01  1.0236039813985E+00
    62  6.1000000000000E-01  6.5616988496560E-01  1.0320394029443E+00
    63  6.2000000000000E-01  6.1171036025673E-01  1.0400490822127E+00
    64  6.3000000000000E-01  5.6643817987441E-01  1.0476281515306E+00
    65  6.4000000000000E-01  5.2044538830132E-01  1.0547720145569E+00
    66  6.5000000000000E-01  4.7382479626230E-01  1.0614763574053E+00
    67  6.6000000000000E-01  4.2666977070179E-01  1.0677371594910E+00
    68  6.7000000000000E-01  3.7907402477332E-01  1.0735507040694E+00
    69  6.8000000000000E-01  3.3113140835550E-01  1.0789135884364E+00
    70  6.9000000000000E-01  2.8293569960596E-01  1.0838227337593E+00
    71  7.0000000000000E-01  2.3458039806016E-01  1.0882753945097E+00
    72  7.1000000000000E-01  1.8615851977602E-01  1.0922691674680E+00
    73  7.2000000000000E-01  1.3776239501813E-01  1.0958020002737E+00
    74  7.3000000000000E-01  8.9483468967251E-02  1.0988721994918E+00
    75  7.4000000000000E-01  4.1412105930226E-02  1.1014784381722E+00
    76  7.5000000000000E-01 -6.3626024846765E-03  1.1036197628743E+00
    77  7.6000000000000E-01 -5.3753024774885E-02  1.1052956001359E+00
    78  7.7000000000000E-01 -1.0067317209404E-01  1.1065057623617E+00
    79  7.8000000000000E-01 -1.4703887552161E-01  1.1072504531113E+00
    80  7.9000000000000E-01 -1.9276795764288E-01  1.1075302717672E+00
    81  8.0000000000000E-01 -2.3778039804738E-01  1.1073462175637E+00
    82  8.1000000000000E-01 -2.8199849237161E-01  1.1066996929608E+00
    83  8.2000000000000E-01 -3.2534700453063E-01  1.1055925063468E+00
    84  8.3000000000000E-01 -3.6775331180265E-01  1.1040268740573E+00
    85  8.4000000000000E-01 -4.0914754245151E-01  1.1020054216974E+00
    86  8.5000000000000E-01 -4.4946270559289E-01  1.0995311847574E+00
    87  8.6000000000000E-01 -4.8863481303248E-01  1.0966076085140E+00
    88  8.7000000000000E-01 -5.2660299282683E-01  1.0932385472087E+00
    89  8.8000000000000E-01 -5.6330959434107E-01  1.0894282625000E+00
    90  8.9000000000000E-01 -5.9870028460132E-01  1.0851814211852E+00
    91  9.0000000000000E-01 -6.3272413576442E-01  1.0805030921906E+00
    92  9.1000000000000E-01 -6.6533370355177E-01  1.0753987428310E+00
    93  9.2000000000000E-01 -6.9648509651956E-01  1.0698742343400E+00
    94  9.3000000000000E-01 -7.2613803606283E-01  1.0639358166759E+00
    95  9.4000000000000E-01 -7.5425590707630E-01  1.0575901226087E+00
    96  9.5000000000000E-01 -7.8080579922057E-01  1.0508441610962E+00
    97  9.6000000000000E-01 -8.0575853876783E-01  1.0437053099581E+00
    98  9.7000000000000E-01 -8.2908871102694E-01  1.0361813078612E+00
    99  9.8000000000000E-01 -8.5077467337312E-01  1.0282802456259E+00
   100  9.9000000000000E-01 -8.7079855893270E-01  1.0200105568716E+00
   101  1.0000000000000E+00 -8.8914627099862E-01  1.0113810080162E+00
   102  1.0100000000000E+00 -9.0580746827674E-01  1.0024006876470E+00
   103  1.0200000000000E+00 -9.2077554108744E-01  9.9307899528489E-01
   104  1.0300000000000E+00 -9.3404757867065E-01  9.8342562956117E-01
   105  1.0400000000000E+00 -9.4562432776578E-01  9.7345057583038E-01
   106  1.0500000000000E+00 -9.5551014266036E-01  9.6316409324375E-01
   107  1.0600000000000E+00 -9.6371292692336E-01  9.5257670130832E-01
   108  1.0700000000000E+00 -9.7024406705994E-01  9.4169916595873E-01
   109  1.0800000000000E+00 -9.7511835834508E-01  9.3054248516990E-01
   110  1.0900000000000E+00 -9.7835392311258E-01  9.1911787413966E-01
   111  1.1000000000000E+00 -9.7997212179475E-01  9.0743675007184E-01
   112  1.1100000000000E+00 -9.7999745702527E-01  8.9551071659102E-01
   113  1.1200000000000E+00 -9.7845747113458E-01  8.8335154782121E-01
   114  1.1300000000000E+00 -9.7538263738227E-01  8.7097117216157E-01
   115  1.1400000000000E+00 -9.7080624528519E-01  8.5838165579286E-01
   116  1.1500000000000E+00 -9.6476428041342E-01  8.4559518594927E-01
   117  1.1600000000000E+00 -9.5729529903778E-01  8.3262405399036E-01
   118  1.1700000000000E+00 -9.4844029802355E-01  8.1948063830884E-01
   119  1.1800000000000E+00 -9.3824258037433E-01  8.0617738710984E-01
   120  1.1900000000000E+00 -9.2674761683820E-01  7.9272680109785E-01
   121  1.2000000000000E+00 -9.1400290399512E-01  7.7914141610755E-01
   122  1.2100000000000E+00 -9.0005781925033E-01  7.6543378571495E-01
   123  1.2200000000000E+00 -8.8496347316227E-01  7.5161646386511E-01
   124  1.2300000000000E+00 -8.6877255953693E-01  7.3770198755265E-01
   125  1.2400000000000E+00 -8.5153920372192E-01  7.2370285959105E-01
   126  1.2500000000000E+00 -8.3331880953367E-01  7.0963153150646E-01
   127  1.2600000000000E+00 -8.1416790525035E-01  6.9550038659128E-01
   128  1.2700000000000E+00 -7.9414398910076E-01  6.8132172315224E-01
   129  1.2800000000000E+00 -7.7330537467546E-01  6.6710773798732E-01
   130  1.2900000000000E+00 -7.5171103668198E-01  6.5287051012491E-01
   131  1.3000000000000E+00 -7.2942045745944E-01  6.3862198485806E-01
   132  1.3100000000000E+00 -7.0649347466069E-01  6.2437395810567E-01
   133  1.3200000000000E+00 -6.8299013050161E-01  6.1013806113177E-01
   134  1.3300000000000E+00 -6.5897052296748E-01  5.9592574565270E-01
   135  1.3400000000000E+00 -6.3449465935545E-01  5.8174826936122E-01
   136  1.3500000000000E+00 -6.0962231252056E-01  5.6761668189541E-01
   137  1.3600000000000E+00 -5.8441288017976E-01  5.5354181127870E-01
   138  1.3700000000000E+00 -5.5892524761454E-01  5.3953425085656E-01
   139  1.3800000000000E+00 -5.3321765409843E-01  5.2560434675361E-01
   140  1.3900000000000E+00 -5.0734756335947E-01  5.1176218587381E-01
   141  1.4000000000000E+00 -4.8137153837226E-01  4.9801758446488E-01
   142  1.4100000000000E+00 -4.5534512075640E-01  4.8438007726645E-01
   143  1.4200000000000E+00 -4.2932271504091E-01  4.7085890726016E-01
   144  1.4300000000000E+00 -4.0335747803566E-01  4.5746301603819E-01
   145  1.4400000000000E+00 -3.7750121353234E-01  4.4420103480522E-01
   146  1.4500000000000E+00 -3.5180427253778E-01  4.3108127602704E-01
   147  1.4600000000000E+00 -3.2631545922319E-01  4.1811172573762E-01
   148  1.4700000000000E+00 -3.0108194275266E-01  4.0530003651452E-01
   149  1.4800000000000E+00 -2.7614917513416E-01  3.9265352113110E-01
   150  1.4900000000000E+00 -2.5156081521587E-01  3.8017914689212E-01
   151  1.5000000000000E+00 -2.2735865893001E-01  3.6788353065777E-01
   152  1.5100000000000E+00 -2.0358257586622E-01  3.5577293455938E-01
   153  1.5200000000000E+00 -1.8027045223562E-01  3.4385326240856E-01
   154  1.5300000000000E+00 -1.5745814026660E-01  3.3213005679963E-01
   155  1.5400000000000E+00 -1.3517941405301E-01  3.2060849690382E-01
   156  1.5500000000000E+00 -1.1346593185585E-01  3.0929339695190E-01
   157  1.5600000000000E+00 -9.2347204839286E-02  2.9818920540048E-01
   158  1.5700000000000E+00 -7.1850572203470E-02  2.8730000477546E-01
   159  1.5800000000000E+00 -5.2001182656949E-02  2.7662951218489E-01
   160  1.5900000000000E+00 -3.2821982153885E-02  2.6618108049174E-01
   161  1.6000000000000E+00 -1.4333707803138E-02  2.5595770013577E-01
   162  1.6100000000000E+00  3.4451121606317E-03  2.4596200159234E-01
   163  1.6200000000000E+00  2.0498152470208E-02  2.3619625845465E-01
   164  1.6300000000000E+00  3.6811279125390E-02  2.2666239112445E-01
   165  1.6400000000000E+00  5.2372532056030E-02  2.1736197109544E-01
   166  1.6500000000000E+00  6.7172102319545E-02  2.0829622581189E-01
   167  1.6600000000000E+00  8.1202304017471E-02  1.9946604408444E-01
   168  1.6700000000000E+00  9.4457541127880E-02  1.9087198204356E-01
   169  1.6800000000000E+00  1.0693426946205E-01  1.8251426961054E-01
   170  1.6900000000000E+00  1.1863095396442E-01  1.7439281746477E-01
   171  1.7000000000000E+00  1.2954802158427E-01  1.6650722448530E-01
   172  1.7100000000000E+00  1.3968780995652E-01  1.5885678564398E-01
   173  1.7200000000000E+00  1.4905451213627E-01  1.5144050032676E-01
   174  1.7300000000000E+00  1.5765411763881E-01  1.4425708105909E-01
   175  1.7400000000000E+00  1.6549435004193E-01  1.3730496261091E-01
   176  1.7500000000000E+00  1.7258460141244E-01  1.3058231145622E-01
   177  1.7600000000000E+00  1.7893586382203E-01  1.2408703556190E-01
   178  1.7700000000000E+00  1.8456065822038E-01  1.1781679448001E-01
   179  1.7800000000000E+00  1.8947296093504E-01  1.1176900971781E-01
   180  1.7900000000000E+00  1.9368812806803E-01  1.0594087535932E-01
   181  1.8000000000000E+00  1.9722281805876E-01  1.0032936891234E-01
   182  1.8100000000000E+00  2.0009491268188E-01  9.4931262354866E-02
   183  1.8200000000000E+00  2.0232343674588E-01  8.9743133354678E-02
   184  1.8300000000000E+00  2.0392847675563E-01  8.4761376636236E-02
   185  1.8400000000000E+00  2.0493109879784E-01  7.9982215469136E-02
   186  1.8500000000000E+00  2.0535326590348E-01  7.5401713252577E-02
   187  1.8600000000000E+00  2.0521775513598E-01  7.1015785170691E-02
   188  1.8700000000000E+00  2.0454807464721E-01  6.6820209893929E-02
   189  1.8800000000000E+00  2.0336838093659E-01  6.2810641302112E-02
   190  1.8900000000000E+00  2.0170339654065E-01  5.8982620205309E-02
   191  1.9000000000000E+00  1.9957832837234E-01  5.5331586039138E-02
   192  1.9100000000000E+00  1.9701878692015E-01  5.1852888511795E-02
   193  1.9200000000000E+00  1.9405070650809E-01  4.8541799180617E-02
   194  1.9300000000000E+00  1.9070026680727E-01  4.5393522936770E-02
   195  1.9400000000000E+00  1.8699381578005E-01  4.2403209377257E-02
   196  1.9500000000000E+00  1.8295779422675E-01  3.9565964044272E-02
   197  1.9600000000000E+00  1.7861866209410E-01  3.6876859512613E-02
   198  1.9700000000000E+00  1.7400282669343E-01  3.4330946306731E-02
   199  1.9800000000000E+00  1.6913657296561E-01  3.1923263629763E-02
   200  1.9900000000000E+00  1.6404599591761E-01  2.9648849887758E-02
   201  2.0000000000000E+00  1.5875693534457E-01  2.7502752993158E-02
   202  2.0100000000000E+00  1.5329491293961E-01  2.5480040432457E-02
   203  2.0200000000000E+00  1.4768507188187E-01  2.3575809083838E-02
   204  2.0300000000000E+00  1.4195211898184E-01  2.1785194771471E-02
   205  2.0400000000000E+00  1.3612026945235E-01  2.0103381544029E-02
   206  2.0500000000000E+00  1.3021319436145E-01  1.8525610665859E-02
   207  2.0600000000000E+00  1.2425397081334E-01  1.7047189310152E-02
   208  2.0700000000000E+00  1.1826503489255E-01  1.5663498944270E-02
   209  2.0800000000000E+00  1.1226813739637E-01  1.4370003398305E-02
   210  2.0900000000000E+00  1.0628430237041E-01  1.3162256608753E-02
   211  2.1000000000000E+00  1.0033378845327E-01  1.2035910030000E-02
   212  2.1100000000000E+00  9.4436053026261E-02  1.0986719707188E-02
   213  2.1200000000000E+00  8.8609719156338E-02  1.0010553004766E-02
   214  2.1300000000000E+00  8.2872545311732E-02  9.1033949858134E-03
   215  2.1400000000000E+00  7.7241397822326E-02  8.2613544379809E-03
   216  2.1500000000000E+00  7.1732226050288E-02  7.4806695425587E-03
   217  2.1600000000000E+00  6.6360040228910E-02  6.7577131839416E-03
   218  2.1700000000000E+00  6.1138891922610E-02  6.0889978973593E-03
   219  2.1800000000000E+00  5.6081857055265E-02  5.4711804534081E-03
   220  2.1900000000000E+00  5.1201021449775E-02  4.9010660784572E-03
   221  2.2000000000000E+00  4.6507468817138E-02  4.3756123106145E-03
   222  2.2100000000000E+00  4.2011271130127E-02  3.8919324914550E-03
   223  2.2200000000000E+00  3.7721481313774E-02  3.4472988941962E-03
   224  2.2300000000000E+00  3.3646128182658E-02  3.0391454894649E-03
   225  2.2400000000000E+00  2.9792214115239E-02  2.6650704811479E-03
   226  2.2500000000000E+00  2.6165711850414E-02  2.3228377891224E-03
   227  2.2600000000000E+00  2.2771565066579E-02  2.0103786538212E-03
   228  2.2700000000000E+00  1.9613712086531E-02  1.7257970369207E-03
   229  2.2800000000000E+00  1.6695047129479E-02  1.4673632387370E-03
   230  2.2900000000000E+00  1.4017119224756E-02  1.2334376790423E-03
   231  2.3000000000000E+00  1.1579920291151E-02  1.0224109822947E-03
   232  2.3100000000000E+00  9.3835437319575E-03  8.3309121231656E-04
   233  2.3200000000000E+00  7.4274943890801E-03  6.6455433966363E-04
   234  2.3300000000000E+00  5.7100511554992E-03  5.1599947607437E-04
   235  2.3400000000000E+00  4.2285016397156E-03  3.8679216799542E-04
   236  2.3500000000000E+00  2.9791209462019E-03  2.7645338791290E-04
   237  2.3600000000000E+00  1.9572062366462E-03  1.8465975174880E-04
   238  2.3700000000000E+00  1.1575223109098E-03  1.1128692738587E-04
   239  2.3800000000000E+00  5.7027788087459E-04  5.5974029624823E-05
   240  2.3900000000000E+00  1.9514279560524E-04  1.9608172848305E-05
   241  2.4000000000000E+00  2.6331361757533E-05  2.7242168425880E-06
   242  2.4100000000000E+00 -9.4390558981431E-06 -9.8339140893838E-07
   243  2.4200000000000E+00  9.9763355659179E-07  1.0229284923624E-07
   244  2.4300  0.  0.
   245  2.4400 -0. -0.
   246  2.4500 -0. -0.
   247  2.4600 -0. -0.
   248  2.4700  0.  0.
   249  2.4800  0.  0.
   250  2.4900  0.  0.
   251  2.5000  0.  0.
   252  2.5100  0.  0.
   253  2.5200  0.  0.
   254  2.5300  0.  0.
   255  2.5400  0.  0.
   256  2.5500  0.  0.
   257  2.5600  0.  0.
   258  2.5700  0.  0.
   259  2.5800  0.  0.
   260  2.5900  0.  0.
   261  2.6000  0.  0.
   262  2.6100  0.  0.
   263  2.6200  0.  0.
   264  2.6300  0.  0.
   265  2.6400  0.  0.
   266  2.6500  0.  0.
   267  2.6600  0.  0.
   268  2.6700  0.  0.
   269  2.6800  0.  0.
   270  2.6900  0.  0.
   271  2.7000  0.  0.
   272  2.7100  0.  0.
   273  2.7200  0.  0.
   274  2.7300  0.  0.
   275  2.7400  0.  0.
   276  2.7500  0.  0.
   277  2.7600  0.  0.
   278  2.7700  0.  0.
   279  2.7800  0.  0.
   280  2.7900  0.  0.
   281  2.8000  0.  0.
   282  2.8100  0.  0.
   283  2.8200  0.  0.
   284  2.8300  0.  0.
   285  2.8400  0.  0.
   286  2.8500  0.  0.
   287  2.8600  0.  0.
   288  2.8700  0.  0.
   289  2.8800  0.  0.
   290  2.8900  0.  0.
   291  2.9000  0.  0.
   292  2.9100  0.  0.
   293  2.9200  0.  0.
   294  2.9300  0.  0.
   295  2.9400  0.  0.
   296  2.9500  0.  0.
   297  2.9600  0.  0.
   298  2.9700  0.  0.
   299  2.9800  0.  0.
   300  2.9900  0.  0.
   301  3.0000  0.  0.
   302  3.0100  0.  0.
   303  3.0200  0.  0.
   304  3.0300  0.  0.
   305  3.0400  0.  0.
   306  3.0500  0.  0.
   307  3.0600  0.  0.
   308  3.0700  0.  0.
   309  3.0800  0.  0.
   310  3.0900  0.  0.
   311  3.1000  0.  0.
   312  3.1100  0.  0.
   313  3.1200  0.  0.
   314  3.1300  0.  0.
   315  3.1400  0.  0.
   316  3.1500  0.  0.
   317  3.1600  0.  0.
   318  3.1700  0.  0.
   319  3.1800  0.  0.
   320  3.1900  0.  0.
   321  3.2000  0.  0.
   322  3.2100  0.  0.
   323  3.2200  0.  0.
   324  3.2300  0.  0.
   325  3.2400  0.  0.
   326  3.2500  0.  0.
   327  3.2600  0.  0.
   328  3.2700  0.  0.
   329  3.2800  0.  0.
   330  3.2900  0.  0.
   331  3.3000  0.  0.
   332  3.3100  0.  0.
   333  3.3200  0.  0.
   334  3.3300  0.  0.
   335  3.3400  0.  0.
   336  3.3500  0.  0.
   337  3.3600  0.  0.
   338  3.3700  0.  0.
   339  3.3800  0.  0.
   340  3.3900  0.  0.
   341  3.4000  0.  0.
   342  3.4100  0.  0.
   343  3.4200  0.  0.
   344  3.4300  0.  0.
   345  3.4400  0.  0.
   346  3.4500  0.  0.
   347  3.4600  0.  0.
   348  3.4700  0.  0.
   349  3.4800  0.  0.
   350  3.4900  0.  0.
   351  3.5000  0.  0.
   352  3.5100  0.  0.
   353  3.5200  0.  0.
   354  3.5300  0.  0.
   355  3.5400  0.  0.
   356  3.5500  0.  0.
   357  3.5600  0.  0.
   358  3.5700  0.  0.
   359  3.5800  0.  0.
   360  3.5900  0.  0.
   361  3.6000  0.  0.
   362  3.6100  0.  0.
   363  3.6200  0.  0.
   364  3.6300  0.  0.
   365  3.6400  0.  0.
   366  3.6500  0.  0.
   367  3.6600  0.  0.
   368  3.6700  0.  0.
   369  3.6800  0.  0.
   370  3.6900  0.  0.
   371  3.7000  0.  0.
   372  3.7100  0.  0.
   373  3.7200  0.  0.
   374  3.7300  0.  0.
   375  3.7400  0.  0.
   376  3.7500  0.  0.
   377  3.7600  0.  0.
   378  3.7700  0.  0.
   379  3.7800  0.  0.
   380  3.7900  0.  0.
   381  3.8000  0.  0.
   382  3.8100  0.  0.
   383  3.8200  0.  0.
   384  3.8300  0.  0.
   385  3.8400  0.  0.
   386  3.8500  0.  0.
   387  3.8600  0.  0.
   388  3.8700  0.  0.
   389  3.8800  0.  0.
   390  3.8900  0.  0.
   391  3.9000  0.  0.
   392  3.9100  0.  0.
   393  3.9200  0.  0.
   394  3.9300  0.  0.
   395  3.9400  0.  0.
   396  3.9500  0.  0.
   397  3.9600  0.  0.
   398  3.9700  0.  0.
   399  3.9800  0.  0.
   400  3.9900  0.  0.
   401  4.0000  0.  0.
   402  4.0100  0.  0.
   403  4.0200  0.  0.
   404  4.0300  0.  0.
   405  4.0400  0.  0.
   406  4.0500  0.  0.
   407  4.0600  0.  0.
   408  4.0700  0.  0.
   409  4.0800  0.  0.
   410  4.0900  0.  0.
   411  4.1000  0.  0.
   412  4.1100  0.  0.
   413  4.1200  0.  0.
   414  4.1300  0.  0.
   415  4.1400  0.  0.
   416  4.1500  0.  0.
   417  4.1600  0.  0.
   418  4.1700  0.  0.
   419  4.1800  0.  0.
   420  4.1900  0.  0.
   421  4.2000  0.  0.
   422  4.2100  0.  0.
   423  4.2200  0.  0.
   424  4.2300  0.  0.
   425  4.2400  0.  0.
   426  4.2500  0.  0.
   427  4.2600  0.  0.
   428  4.2700  0.  0.
   429  4.2800  0.  0.
   430  4.2900  0.  0.
   431  4.3000  0.  0.
   432  4.3100  0.  0.
   433  4.3200  0.  0.
   434  4.3300  0.  0.
   435  4.3400  0.  0.
   436  4.3500  0.  0.
   437  4.3600  0.  0.
   438  4.3700  0.  0.
   439  4.3800  0.  0.
   440  4.3900  0.  0.
   441  4.4000  0.  0.
   442  4.4100  0.  0.
   443  4.4200  0.  0.
   444  4.4300  0.  0.
   445  4.4400  0.  0.
   446  4.4500  0.  0.
   447  4.4600  0.  0.
   448  4.4700  0.  0.
   449  4.4800  0.  0.
   450  4.4900  0.  0.
   451  4.5000  0.  0.
   452  4.5100  0.  0.
   453  4.5200  0.  0.
   454  4.5300  0.  0.
   455  4.5400  0.  0.
   456  4.5500  0.  0.
   457  4.5600  0.  0.
   458  4.5700  0.  0.
   459  4.5800  0.  0.
   460  4.5900  0.  0.
   461  4.6000  0.  0.
   462  4.6100  0.  0.
   463  4.6200  0.  0.
   464  4.6300  0.  0.
   465  4.6400  0.  0.
   466  4.6500  0.  0.
   467  4.6600  0.  0.
   468  4.6700  0.  0.
   469  4.6800  0.  0.
   470  4.6900  0.  0.
   471  4.7000  0.  0.
   472  4.7100  0.  0.
   473  4.7200  0.  0.
   474  4.7300  0.  0.
   475  4.7400  0.  0.
   476  4.7500  0.  0.
   477  4.7600  0.  0.
   478  4.7700  0.  0.
   479  4.7800  0.  0.
   480  4.7900  0.  0.
   481  4.8000  0.  0.
   482  4.8100  0.  0.
   483  4.8200  0.  0.
   484  4.8300  0.  0.
   485  4.8400  0.  0.
   486  4.8500  0.  0.
   487  4.8600  0.  0.
   488  4.8700  0.  0.
   489  4.8800  0.  0.
   490  4.8900  0.  0.
   491  4.9000  0.  0.
   492  4.9100  0.  0.
   493  4.9200  0.  0.
   494  4.9300  0.  0.
   495  4.9400  0.  0.
   496  4.9500  0.  0.
   497  4.9600  0.  0.
   498  4.9700  0.  0.
   499  4.9800  0.  0.
   500  4.9900  0.  0.
   501  5.0000  0.  0.
   502  5.0100  0.  0.
   503  5.0200  0.  0.
   504  5.0300  0.  0.
   505  5.0400  0.  0.
   506  5.0500  0.  0.
   507  5.0600  0.  0.
   508  5.0700  0.  0.
   509  5.0800  0.  0.
   510  5.0900  0.  0.
   511  5.1000  0.  0.
   512  5.1100  0.  0.
   513  5.1200  0.  0.
   514  5.1300  0.  0.
   515  5.1400  0.  0.
   516  5.1500  0.  0.
   517  5.1600  0.  0.
   518  5.1700  0.  0.
   519  5.1800  0.  0.
   520  5.1900  0.  0.
   521  5.2000  0.  0.
   522  5.2100  0.  0.
   523  5.2200  0.  0.
   524  5.2300  0.  0.
   525  5.2400  0.  0.
   526  5.2500  0.  0.
   527  5.2600  0.  0.
   528  5.2700  0.  0.
   529  5.2800  0.  0.
   530  5.2900  0.  0.
   531  5.3000  0.  0.
   532  5.3100  0.  0.
   533  5.3200  0.  0.
   534  5.3300  0.  0.
   535  5.3400  0.  0.
   536  5.3500  0.  0.
   537  5.3600  0.  0.
   538  5.3700  0.  0.
   539  5.3800  0.  0.
   540  5.3900  0.  0.
   541  5.4000  0.  0.
   542  5.4100  0.  0.
   543  5.4200  0.  0.
   544  5.4300  0.  0.
   545  5.4400  0.  0.
   546  5.4500  0.  0.
   547  5.4600  0.  0.
   548  5.4700  0.  0.
   549  5.4800  0.  0.
   550  5.4900  0.  0.
   551  5.5000  0.  0.
   552  5.5100  0.  0.
   553  5.5200  0.  0.
   554  5.5300  0.  0.
   555  5.5400  0.  0.
   556  5.5500  0.  0.
   557  5.5600  0.  0.
   558  5.5700  0.  0.
   559  5.5800  0.  0.
   560  5.5900  0.  0.
   561  5.6000  0.  0.
   562  5.6100  0.  0.
   563  5.6200  0.  0.
   564  5.6300  0.  0.
   565  5.6400  0.  0.
   566  5.6500  0.  0.
   567  5.6600  0.  0.
   568  5.6700  0.  0.
   569  5.6800  0.  0.
   570  5.6900  0.  0.
   571  5.7000  0.  0.
   572  5.7100  0.  0.
   573  5.7200  0.  0.
   574  5.7300  0.  0.
   575  5.7400  0.  0.
   576  5.7500  0.  0.
   577  5.7600  0.  0.
   578  5.7700  0.  0.
   579  5.7800  0.  0.
   580  5.7900  0.  0.
   581  5.8000  0.  0.
   582  5.8100  0.  0.
   583  5.8200  0.  0.
   584  5.8300  0.  0.
   585  5.8400  0.  0.
   586  5.8500  0.  0.
   587  5.8600  0.  0.
   588  5.8700  0.  0.
   589  5.8800  0.  0.
   590  5.8900  0.  0.
   591  5.9000  0.  0.
   592  5.9100  0.  0.
   593  5.9200  0.  0.
   594  5.9300  0.  0.
   595  5.9400  0.  0.
   596  5.9500  0.  0.
   597  5.9600  0.  0.
   598  5.9700  0.  0.
   599  5.9800  0.  0.
   600  5.9900  0.  0.
   1                        -1.8658100099571E+00 -2.6609388363544E-01
     1  0.0000000000000E+00  2.4067449422294E-12 -2.4816829147234E-11
     2  1.0000000000000E-02  3.5679227022486E-04 -3.5494650999700E-04
     3  2.0000000000000E-02  1.4267309907865E-03 -1.4188887235466E-03
     4  3.0000000000000E-02  3.2085025002437E-03 -3.1891374935014E-03
     5  4.0000000000000E-02  5.6999193912739E-03 -5.6612202352656E-03
     6  5.0000000000000E-02  8.8979235489621E-03 -8.8288948725268E-03
     7  6.0000000000000E-02  1.2798590395760E-02 -1.2684169270662E-02
     8  7.0000000000000E-02  1.7397134334513E-02 -1.7217326067983E-02
     9  8.0000000000000E-02  2.2687915378541E-02 -2.2416952790170E-02
    10  9.0000000000000E-02  2.8664446955397E-02 -2.8269977108758E-02
    11  1.0000000000000E-01  3.5319404868634E-02 -3.4761707081498E-02
    12  1.1000000000000E-01  4.2644637399617E-02 -4.1875876189526E-02
    13  1.2000000000000E-01  5.0631176529268E-02 -4.9594692965066E-02
    14  1.3000000000000E-01  5.9269250257485E-02 -5.7898894982698E-02
    15  1.4000000000000E-01  6.8548295995974E-02 -6.6767806968469E-02
    16  1.5000000000000E-01  7.8456975008242E-02 -7.6179402763012E-02
    17  1.6000000000000E-01  8.8983187868693E-02 -8.6110370858819E-02
    18  1.7000000000000E-01  1.0011409091100E-01 -9.6536183216790E-02
    19  1.8000000000000E-01  1.1183611363426E-01 -1.0743116705427E-01
    20  1.9000000000000E-01  1.2413497703393E-01 -1.1876857928520E-01
    21  2.0000000000000E-01  1.3699571282317E-01 -1.3052068328340E-01
    22  2.1000000000000E-01  1.5040268350874E-01 -1.4265882763200E-01
    23  2.2000000000000E-01  1.6433960328469E-01 -1.5515352651613E-01
    24  2.3000000000000E-01  1.7878955970581E-01 -1.6797454141191E-01
    25  2.4000000000000E-01  1.9373503610189E-01 -1.8109096372218E-01
    26  2.5000000000000E-01  2.0915793469327E-01 -1.9447129800951E-01
    27  2.6000000000000E-01  2.2503960036718E-01 -2.0808354547829E-01
    28  2.7000000000000E-01  2.4136084507399E-01 -2.2189528736134E-01
    29  2.8000000000000E-01  2.5810197280206E-01 -2.3587376787165E-01
    30  2.9000000000000E-01  2.7524280508966E-01 -2.4998597638732E-01
    31  3.0000000000000E-01  2.9276270703201E-01 -2.6419872854636E-01
    32  3.1000000000000E-01  3.1064061374173E-01 -2.7847874593910E-01
    33  3.2000000000000E-01  3.2885505722097E-01 -2.9279273409802E-01
    34  3.3000000000000E-01  3.4738419360347E-01 -3.0710745849908E-01
    35  3.4000000000000E-01  3.6620583072551E-01 -3.2138981830382E-01
    36  3.5000000000000E-01  3.8529745598466E-01 -3.3560691758878E-01
    37  3.6000000000000E-01  4.0463626444603E-01 -3.4972613382661E-01
    38  3.7000000000000E-01  4.2419918715628E-01 -3.6371518340306E-01
    39  3.8000000000000E-01  4.4396291962610E-01 -3.7754218397438E-01
    40  3.9000000000000E-01  4.6390395044298E-01 -3.9117571349111E-01
    41  4.0000000000000E-01  4.8399858997661E-01 -4.0458486573688E-01
    42  4.1000000000000E-01  5.0422299914036E-01 -4.1773930225350E-01
    43  4.2000000000000E-01  5.2455321817305E-01 -4.3060930054764E-01
    44  4.3000000000000E-01  5.4496519540647E-01 -4.4316579849812E-01
    45  4.4000000000000E-01  5.6543481598482E-01 -4.5538043490741E-01
    46  4.5000000000000E-01  5.8593793050380E-01 -4.6722558616536E-01
    47  4.6000000000000E-01  6.0645038353759E-01 -4.7867439901745E-01
    48  4.7000000000000E-01  6.2694804202367E-01 -4.8970081945445E-01
    49  4.8000000000000E-01  6.4740682347616E-01 -5.0027961776416E-01
    50  4.9000000000000E-01  6.6780272399965E-01 -5.1038640980950E-01
    51  5.0000000000000E-01  6.8811184607670E-01 -5.1999767462020E-01
    52  5.1000000000000E-01  7.0831042610315E-01 -5.2909076840736E-01
    53  5.2000000000000E-01  7.2837486164657E-01 -5.3764393513180E-01
    54  5.3000000000000E-01  7.4828173840431E-01 -5.4563631377702E-01
    55  5.4000000000000E-01  7.6800785683847E-01 -5.5304794249716E-01
    56  5.5000000000000E-01  7.8753025846635E-01 -5.5985975982789E-01
    57  5.6000000000000E-01  8.0682625178569E-01 -5.6605360316504E-01
    58  5.7000000000000E-01  8.2587343781504E-01 -5.7161220473064E-01
    59  5.8000000000000E-01  8.4464973523032E-01 -5.7651918525955E-01
    60  5.9000000000000E-01  8.6313340507959E-01 -5.8075904565182E-01
    61  6.0000000000000E-01  8.8130307505860E-01 -5.8431715684587E-01