Os    ONCVPSP-4.0.1  r_core=   2.69026   2.70640   2.70640   2.69026
     76.0000     16.0000      210704    zatom,zion,pspd
     8      11   3     4   600     0    pspcod,pspxc,lmax,lloc,mmax,r2well
  5.99000000  5.00000000  0.00000000    rchrg fchrg qchrg
     2     2     2     2     0    nproj
     1     1           extension_switch
   0                        -2.7393157452666E+00 -2.1000386572574E-01
     1  0.0000000000000E+00 -2.1871393585116E-14 -7.6161299489286E-12
     2  1.0000000000000E-02  2.7157053433113E-02  3.3406710438484E-02
     3  2.0000000000000E-02  5.4297672857265E-02  6.6722561051939E-02
     4  3.0000000000000E-02  8.1405438152419E-02  9.9856935799150E-02
     5  4.0000000000000E-02  1.0846395696420E-01  1.3271970553797E-01
     6  5.0000000000000E-02  1.3545687855627E-01  1.6522146980538E-01
     7  6.0000000000000E-02  1.6236790762619E-01  1.9727379659948E-01
     8  7.0000000000000E-02  1.8918081807254E-01  2.2878945950638E-01
     9  8.0000000000000E-02  2.1587946670128E-01  2.5968267152245E-01
    10  9.0000000000000E-02  2.4244780685911E-01  2.8986931493183E-01
    11  1.0000000000000E-01  2.6886990198182E-01  3.1926716661055E-01
    12  1.1000000000000E-01  2.9512993904556E-01  3.4779611814140E-01
    13  1.2000000000000E-01  3.2121224190894E-01  3.7537839013893E-01
    14  1.3000000000000E-01  3.4710128453411E-01  4.0193874020002E-01
    15  1.4000000000000E-01  3.7278170407480E-01  4.2740466391411E-01
    16  1.5000000000000E-01  3.9823831381945E-01  4.5170658838681E-01
    17  1.6000000000000E-01  4.2345611597761E-01  4.7477805775181E-01
    18  1.7000000000000E-01  4.4842031429799E-01  4.9655591016926E-01
    19  1.8000000000000E-01  4.7311632650630E-01  5.1698044583269E-01
    20  1.9000000000000E-01  4.9752979655140E-01  5.3599558553231E-01
    21  2.0000000000000E-01  5.2164660664825E-01  5.5354901934954E-01
    22  2.1000000000000E-01  5.4545288910623E-01  5.6959234508537E-01
    23  2.2000000000000E-01  5.6893503793163E-01  5.8408119605465E-01
    24  2.3000000000000E-01  5.9207972019290E-01  5.9697535790845E-01
    25  2.4000000000000E-01  6.1487388713790E-01  6.0823887417781E-01
    26  2.5000000000000E-01  6.3730478505203E-01  6.1784014026405E-01
    27  2.6000000000000E-01  6.5935996584645E-01  6.2575198563381E-01
    28  2.7000000000000E-01  6.8102729736593E-01  6.3195174400992E-01
    29  2.8000000000000E-01  7.0229497340569E-01  6.3642131138350E-01
    30  2.9000000000000E-01  7.2315152342705E-01  6.3914719170681E-01
    31  3.0000000000000E-01  7.4358582196179E-01  6.4012053016114E-01
    32  3.1000000000000E-01  7.6358709769523E-01  6.3933713392895E-01
    33  3.2000000000000E-01  7.8314494221855E-01  6.3679748043456E-01
    34  3.3000000000000E-01  8.0224931844061E-01  6.3250671305280E-01
    35  3.4000000000000E-01  8.2089056865037E-01  6.2647462432012E-01
    36  3.5000000000000E-01  8.3905942222065E-01  6.1871562671750E-01
    37  3.6000000000000E-01  8.5674700294479E-01  6.0924871112906E-01
    38  3.7000000000000E-01  8.7394483599756E-01  5.9809739311475E-01
    39  3.8000000000000E-01  8.9064485451235E-01  5.8528964716891E-01
    40  3.9000000000000E-01  9.0683940576684E-01  5.7085782917005E-01
    41  4.0000000000000E-01  9.2252125696948E-01  5.5483858725958E-01
    42  4.1000000000000E-01  9.3768360063978E-01  5.3727276141887E-01
    43  4.2000000000000E-01  9.5232005957562E-01  5.1820527204529E-01
    44  4.3000000000000E-01  9.6642469140097E-01  4.9768499785753E-01
    45  4.4000000000000E-01  9.7999199268819E-01  4.7576464348975E-01
    46  4.5000000000000E-01  9.9301690264902E-01  4.5250059716168E-01
    47  4.6000000000000E-01  1.0054948063892E+00  4.2795277883884E-01
    48  4.7000000000000E-01  1.0174215377217E+00  4.0218447932203E-01
    49  4.8000000000000E-01  1.0287933815346E+00  3.7526219072976E-01
    50  4.9000000000000E-01  1.0396070757086E+00  3.4725542885964E-01
    51  5.0000000000000E-01  1.0498598125827E+00  3.1823654793601E-01
    52  5.1000000000000E-01  1.0595492399623E+00  2.8828054827117E-01
    53  5.2000000000000E-01  1.0686734616700E+00  2.5746487738502E-01
    54  5.3000000000000E-01  1.0772310376352E+00  2.2586922514509E-01
    55  5.4000000000000E-01  1.0852209835217E+00  1.9357531350331E-01
    56  5.5000000000000E-01  1.0926427698922E+00  1.6066668141929E-01
    57  5.6000000000000E-01  1.0994963209098E+00  1.2722846557108E-01
    58  5.7000000000000E-01  1.1057820125758E+00  9.3347177464165E-02
    59  5.8000000000000E-01  1.1115006705050E+00  5.9110477557070E-02
    60  5.9000000000000E-01  1.1166535672393E+00  2.4606947028375E-02
    61  6.0000000000000E-01  1.1212424191029E+00 -1.0074142186361E-02
    62  6.1000000000000E-01  1.1252693825989E+00 -4.4843058456340E-02
    63  6.2000000000000E-01  1.1287370503526E+00 -7.9609841984396E-02
    64  6.3000000000000E-01  1.1316484466042E+00 -1.1428453617236E-01
    65  6.4000000000000E-01  1.1340070222550E+00 -1.4877741819546E-01
    66  6.5000000000000E-01  1.1358166494721E+00 -1.8299922816324E-01
    67  6.6000000000000E-01  1.1370816158565E+00 -2.1686139625086E-01
    68  6.7000000000000E-01  1.1378066181818E+00 -2.5027626719325E-01
    69  6.8000000000000E-01  1.1379967557082E+00 -2.8315732154442E-01
    70  6.9000000000000E-01  1.1376575230807E+00 -3.1541939311608E-01
    71  7.0000000000000E-01  1.1367948028186E+00 -3.4697888202322E-01
    72  7.1000000000000E-01  1.1354148574044E+00 -3.7775396277890E-01
    73  7.2000000000000E-01  1.1335243209811E+00 -4.0766478689735E-01
    74  7.3000000000000E-01  1.1311301906684E+00 -4.3663367948230E-01
    75  7.4000000000000E-01  1.1282398175068E+00 -4.6458532929678E-01
    76  7.5000000000000E-01  1.1248608970400E+00 -4.9144697183149E-01
    77  7.6000000000000E-01  1.1210014595487E+00 -5.1714856491081E-01
    78  7.7000000000000E-01  1.1166698599456E+00 -5.4162295639874E-01
    79  7.8000000000000E-01  1.1118747673449E+00 -5.6480604359155E-01
    80  7.9000000000000E-01  1.1066251543189E+00 -5.8663692390921E-01
    81  8.0000000000000E-01  1.1009302858549E+00 -6.0705803652422E-01
    82  8.1000000000000E-01  1.0947997080270E+00 -6.2601529459372E-01
    83  8.2000000000000E-01  1.0882432363955E+00 -6.4345820778902E-01
    84  8.3000000000000E-01  1.0812709441507E+00 -6.5933999484527E-01
    85  8.4000000000000E-01  1.0738931500145E+00 -6.7361768588400E-01
    86  8.5000000000000E-01  1.0661204059163E+00 -6.8625221429055E-01
    87  8.6000000000000E-01  1.0579634844590E+00 -6.9720849795977E-01
    88  8.7000000000000E-01  1.0494333661918E+00 -7.0645550975361E-01
    89  8.8000000000000E-01  1.0405412267050E+00 -7.1396633704543E-01
    90  8.9000000000000E-01  1.0312984235666E+00 -7.1971823025748E-01
    91  9.0000000000000E-01  1.0217164831149E+00 -7.2369264032898E-01
    92  9.1000000000000E-01  1.0118070871264E+00 -7.2587524508381E-01
    93  9.2000000000000E-01  1.0015820593774E+00 -7.2625596449800E-01
    94  9.3000000000000E-01  9.9105335211466E-01 -7.2482896489821E-01
    95  9.4000000000000E-01  9.8023303245680E-01 -7.2159265215318E-01
    96  9.5000000000000E-01  9.6913326874159E-01 -7.1654965395058E-01
    97  9.6000000000000E-01  9.5776631683967E-01 -7.0970679128136E-01
    98  9.7000000000000E-01  9.4614450645225E-01 -7.0107503928325E-01
    99  9.8000000000000E-01  9.3428022741162E-01 -6.9066947762358E-01
   100  9.9000000000000E-01  9.2218591600306E-01 -6.7850923062984E-01
   101  1.0000000000000E+00  9.0987404132676E-01 -6.6461739740308E-01
   102  1.0100000000000E+00  8.9735709171822E-01 -6.4902097217616E-01
   103  1.0200000000000E+00  8.8464756124557E-01 -6.3175075520361E-01
   104  1.0300000000000E+00  8.7175793630233E-01 -6.1284125449469E-01
   105  1.0400000000000E+00  8.5870068231360E-01 -5.9233057872408E-01
   106  1.0500000000000E+00  8.4548823057385E-01 -5.7026032167693E-01
   107  1.0600000000000E+00  8.3213296523406E-01 -5.4667543860597E-01
   108  1.0700000000000E+00  8.1864721045582E-01 -5.2162411489781E-01
   109  1.0800000000000E+00  8.0504321774968E-01 -4.9515762746393E-01
   110  1.0900000000000E+00  7.9133315351473E-01 -4.6733019928904E-01
   111  1.1000000000000E+00  7.7752908679608E-01 -4.3819884758483E-01
   112  1.1100000000000E+00  7.6364297727646E-01 -4.0782322601144E-01
   113  1.1200000000000E+00  7.4968666351795E-01 -3.7626546144159E-01
   114  1.1300000000000E+00  7.3567185146914E-01 -3.4358998575360E-01
   115  1.1400000000000E+00  7.2161010325281E-01 -3.0986336314921E-01
   116  1.1500000000000E+00  7.0751282624854E-01 -2.7515411350027E-01
   117  1.1600000000000E+00  6.9339126248437E-01 -2.3953253223507E-01
   118  1.1700000000000E+00  6.7925647835079E-01 -2.0307050728018E-01
   119  1.1800000000000E+00  6.6511935465003E-01 -1.6584133357710E-01
   120  1.1900000000000E+00  6.5099057699291E-01 -1.2791952569538E-01
   121  1.2000000000000E+00  6.3688062655492E-01 -8.9380629063785E-02
   122  1.2100000000000E+00  6.2279977120253E-01 -5.0301030340808E-02
   123  1.2200000000000E+00  6.0875805700012E-01 -1.0757767442490E-02
   124  1.2300000000000E+00  5.9476530010723E-01  2.9171660257967E-02
   125  1.2400000000000E+00  5.8083107907509E-01  6.9409481049963E-02
   126  1.2500000000000E+00  5.6696472755080E-01  1.0987783882287E-01
   127  1.2600000000000E+00  5.5317532739659E-01  1.5049897932733E-01
   128  1.2700000000000E+00  5.3947170223110E-01  1.9119543427660E-01
   129  1.2800000000000E+00  5.2586241139869E-01  2.3189020281512E-01
   130  1.2900000000000E+00  5.1235574437210E-01  2.7250692989357E-01
   131  1.3000000000000E+00  4.9895971559298E-01  3.1297008110325E-01
   132  1.3100000000000E+00  4.8568205975412E-01  3.5320511353736E-01
   133  1.3200000000000E+00  4.7253022752623E-01  3.9313864226236E-01
   134  1.3300000000000E+00  4.5951138173161E-01  4.3269860199948E-01
   135  1.3400000000000E+00  4.4663239396600E-01  4.7181440363434E-01
   136  1.3500000000000E+00  4.3389984166928E-01  5.1041708519118E-01
   137  1.3600000000000E+00  4.2132000564488E-01  5.4843945692802E-01
   138  1.3700000000000E+00  4.0889886802684E-01  5.8581624022934E-01
   139  1.3800000000000E+00  3.9664211069296E-01  6.2248419999406E-01
   140  1.3900000000000E+00  3.8455511412133E-01  6.5838227023820E-01
   141  1.4000000000000E+00  3.7264295668721E-01  6.9345167265428E-01
   142  1.4100000000000E+00  3.6091041439601E-01  7.2763602789206E-01
   143  1.4200000000000E+00  3.4936196104783E-01  7.6088145934871E-01
   144  1.4300000000000E+00  3.3800176882787E-01  7.9313668927999E-01
   145  1.4400000000000E+00  3.2683370931673E-01  8.2435312706824E-01
   146  1.4500000000000E+00  3.1586135491347E-01  8.5448494950659E-01
   147  1.4600000000000E+00  3.0508798066405E-01  8.8348917298381E-01
   148  1.4700000000000E+00  2.9451656648682E-01  9.1132571747773E-01
   149  1.4800000000000E+00  2.8414979978619E-01  9.3795746229006E-01
   150  1.4900000000000E+00  2.7399007844503E-01  9.6335029347944E-01
   151  1.5000000000000E+00  2.6403951418564E-01  9.8747314297356E-01
   152  1.5100000000000E+00  2.5429993628874E-01  1.0102980193649E+00
   153  1.5200000000000E+00  2.4477289565915E-01  1.0318000304183E+00
   154  1.5300000000000E+00  2.3545966922658E-01  1.0519573973422E+00
   155  1.5400000000000E+00  2.2636126466922E-01  1.0707514608963E+00
   156  1.5500000000000E+00  2.1747842544746E-01  1.0881666794335E+00
   157  1.5600000000000E+00  2.0881163613476E-01  1.1041906189919E+00
   158  1.5700000000000E+00  2.0036112803194E-01  1.1188139355775E+00
   159  1.5800000000000E+00  1.9212688505132E-01  1.1320303497961E+00
   160  1.5900000000000E+00  1.8410864985618E-01  1.1438366140119E+00
   161  1.6000000000000E+00  1.7630593024126E-01  1.1542324722324E+00
   162  1.6100000000000E+00  1.6871800573936E-01  1.1632206129335E+00
   163  1.6200000000000E+00  1.6134393443911E-01  1.1708066150580E+00
   164  1.6300000000000E+00  1.5418255999856E-01  1.1769988874360E+00
   165  1.6400000000000E+00  1.4723251883928E-01  1.1818086018915E+00
   166  1.6500000000000E+00  1.4049224750533E-01  1.1852496203133E+00
   167  1.6600000000000E+00  1.3395999017146E-01  1.1873384159820E+00
   168  1.6700000000000E+00  1.2763380628483E-01  1.1880939894562E+00
   169  1.6800000000000E+00  1.2151157832447E-01  1.1875377793327E+00
   170  1.6900000000000E+00  1.1559101966265E-01  1.1856935682074E+00
   171  1.7000000000000E+00  1.0986968251247E-01  1.1825873841675E+00
   172  1.7100000000000E+00  1.0434496594593E-01  1.1782473981597E+00
   173  1.7200000000000E+00  9.9014123966957E-02  1.1727038175812E+00
   174  1.7300000000000E+00  9.3874273623799E-02  1.1659887764479E+00
   175  1.7400000000000E+00  8.8922403145604E-02  1.1581362224979E+00
   176  1.7500000000000E+00  8.4155380087957E-02  1.1491818015927E+00
   177  1.7600000000000E+00  7.9569959472525E-02  1.1391627397799E+00
   178  1.7700000000000E+00  7.5162791906121E-02  1.1281177233818E+00
   179  1.7800000000000E+00  7.0930431664816E-02  1.1160867774762E+00
   180  1.7900000000000E+00  6.6869344729027E-02  1.1031111431327E+00
   181  1.8000000000000E+00  6.2975916755808E-02  1.0892331537664E+00
   182  1.8100000000000E+00  5.9246460974963E-02  1.0744961109680E+00
   183  1.8200000000000E+00  5.5677225995982E-02  1.0589441601653E+00
   184  1.8300000000000E+00  5.2264403513160E-02  1.0426221664644E+00
   185  1.8400000000000E+00  4.9004135896740E-02  1.0255755910147E+00
   186  1.8500000000000E+00  4.5892523658332E-02  1.0078503682338E+00
   187  1.8600000000000E+00  4.2925632779345E-02  9.8949278422016E-01
   188  1.8700000000000E+00  4.0099501891634E-02  9.7054935667337E-01
   189  1.8800000000000E+00  3.7410149300098E-02  9.5106671663170E-01
   190  1.8900000000000E+00  3.4853579837453E-02  9.3109149232625E-01
   191  1.9000000000000E+00  3.2425791541939E-02  9.1067019544015E-01
   192  1.9100000000000E+00  3.0122782149303E-02  8.8984911004919E-01
   193  1.9200000000000E+00  2.7940555390891E-02  8.6867418450816E-01
   194  1.9300000000000E+00  2.5875127090309E-02  8.4719092653365E-01
   195  1.9400000000000E+00  2.3922531051666E-02  8.2544430172096E-01
   196  1.9500000000000E+00  2.2078824732971E-02  8.0347863571835E-01
   197  1.9600000000000E+00  2.0340094698893E-02  7.8133752026757E-01
   198  1.9700000000000E+00  1.8702461847648E-02  7.5906372330459E-01
   199  1.9800000000000E+00  1.7162086407373E-02  7.3669910329920E-01
   200  1.9900000000000E+00  1.5715172697975E-02  7.1428452799654E-01
   201  2.0000000000000E+00  1.4357973655004E-02  6.9185979770824E-01
   202  2.0100000000000E+00  1.3086795112709E-02  6.6946357328409E-01
   203  2.0200000000000E+00  1.1897999844040E-02  6.4713330887986E-01
   204  2.0300000000000E+00  1.0788011355926E-02  6.2490518962019E-01
   205  2.0400000000000E+00  9.7533174387548E-03  6.0281407423925E-01
   206  2.0500000000000E+00  8.7904734695519E-03  5.8089344276601E-01
   207  2.0600000000000E+00  7.8961054689216E-03  5.5917534930444E-01
   208  2.0700000000000E+00  7.0669129123792E-03  5.3769037994297E-01
   209  2.0800000000000E+00  6.2996712972378E-03  5.1646761581157E-01
   210  2.0900000000000E+00  5.5912344667672E-03  4.9553460128934E-01
   211  2.1000000000000E+00  4.9385366938571E-03  4.7491731734933E-01
   212  2.1100000000000E+00  4.3385945268931E-03  4.5464016001373E-01
   213  2.1200000000000E+00  3.7885084011166E-03  4.3472592387546E-01
   214  2.1300000000000E+00  3.2854640191594E-03  4.1519579062942E-01
   215  2.1400000000000E+00  2.8267335049247E-03  3.9606932254174E-01
   216  2.1500000000000E+00  2.4096763354395E-03  3.7736446077172E-01
   217  2.1600000000000E+00  2.0317400556937E-03  3.5909752844891E-01
   218  2.1700000000000E+00  1.6904607819344E-03  3.4128323839338E-01
   219  2.1800000000000E+00  1.3834634992264E-03  3.2393470535632E-01
   220  2.1900000000000E+00  1.1084621594938E-03  3.0706346264591E-01
   221  2.2000000000000E+00  8.6325958654195E-04  2.9067948299306E-01
   222  2.2100000000000E+00  6.4574719493967E-04  2.7479120350024E-01
   223  2.2200000000000E+00  4.5390452991199E-04  2.5940555450737E-01
   224  2.2300000000000E+00  2.8579863567511E-04  2.4452799219923E-01
   225  2.2400000000000E+00  1.3958325987757E-04  2.3016253477090E-01
   226  2.2500000000000E+00  1.3497902070589E-05  2.1631180195975E-01
   227  2.2600000000000E+00 -9.4133285680149E-05  2.0297705774450E-01
   228  2.2700000000000E+00 -1.8490273775020E-04  1.9015825600659E-01
   229  2.2800000000000E+00 -2.6032084502821E-04  1.7785408894290E-01
   230  2.2900000000000E+00 -3.2181744752597E-04  1.6606203801387E-01
   231  2.3000000000000E+00 -3.7074344082621E-04  1.5477842720654E-01
   232  2.3100000000000E+00 -4.0837248759616E-04  1.4399847838859E-01
   233  2.3200000000000E+00 -4.3590282534304E-04  1.3371636852725E-01
   234  2.3300000000000E+00 -4.5445916152539E-04  1.2392528854359E-01
   235  2.3400000000000E+00 -4.6509464714355E-04  1.1461750357215E-01
   236  2.3500000000000E+00 -4.6879291994977E-04  1.0578441439512E-01
   237  2.3600000000000E+00 -4.6647020841677E-04  9.7416619819825E-02
   238  2.3700000000000E+00 -4.5897748770048E-04  8.9503979769162E-02
   239  2.3800000000000E+00 -4.4710267890711E-04  8.2035678856414E-02
   240  2.3900000000000E+00 -4.3157288304134E-04  7.5000290217157E-02
   241  2.4000000000000E+00 -4.1305664116779E-04  6.8385839373883E-02
   242  2.4100000000000E+00 -3.9216621246702E-04  6.2179867912861E-02
   243  2.4200000000000E+00 -3.6945986202014E-04  5.6369496756432E-02
   244  2.4300000000000E+00 -3.4544415029496E-04  5.0941488817048E-02
   245  2.4400000000000E+00 -3.2057621659526E-04  4.5882310826878E-02
   246  2.4500000000000E+00 -2.9526604894771E-04  4.1178194142380E-02
   247  2.4600000000000E+00 -2.6987873298487E-04  3.6815194325197E-02
   248  2.4700000000000E+00 -2.4473667286192E-04  3.2779249313503E-02
   249  2.4800000000000E+00 -2.2012177743788E-04  2.9056236003171E-02
   250  2.4900000000000E+00 -1.9627760507785E-04  2.5632025061350E-02
   251  2.5000000000000E+00 -1.7341146097300E-04  2.2492533809744E-02
   252  2.5100000000000E+00 -1.5169631610195E-04  1.9623777507364E-02
   253  2.5200000000000E+00 -1.3127350116415E-04  1.7011915106444E-02
   254  2.5300000000000E+00 -1.1225337017693E-04  1.4643300368972E-02
   255  2.5400000000000E+00 -9.4717221677076E-05  1.2504527029072E-02
   256  2.5500000000000E+00 -7.8721233244121E-05  1.0582453352381E-02
   257  2.5600000000000E+00 -6.4317395613466E-05  8.8641776856687E-03
   258  2.5700000000000E+00 -5.1593477812640E-05  7.3369466383286E-03
   259  2.5800000000000E+00 -4.0552185787214E-05  5.9886564613635E-03
   260  2.5900000000000E+00 -3.1107700141717E-05  4.8078833796670E-03
   261  2.6000000000000E+00 -2.3177442888553E-05  3.7835231850200E-03
   262  2.6100000000000E+00 -1.6663808059367E-05  2.9049043392726E-03
   263  2.6200000000000E+00 -1.1456086520806E-05  2.1618112010382E-03
   264  2.6300000000000E+00 -7.4320089879565E-06  1.5445012774097E-03
   265  2.6400000000000E+00 -4.4584321966715E-06  1.0437239388054E-03
   266  2.6500000000000E+00 -2.3918106453334E-06  6.5093640818709E-04
   267  2.6600000000000E+00 -1.0794697513006E-06  3.5694432128870E-04
   268  2.6700000000000E+00 -3.5870041303155E-07  1.5468691741253E-04
   269  2.6800000000000E+00 -6.1882348862511E-08  4.2229347680890E-05
   270  2.6900000000000E+00  7.5073394287883E-10  4.4888006024510E-07
   271  2.7000000000000E+00  1.8523498418890E-09 -3.6361221491454E-06
   272  2.7100000000000E+00 -1.2811514231072E-09  1.0354714686794E-06
   273  2.72 -0.  0.
   274  2.73  0. -0.
   275  2.74 -0. -0.
   276  2.75 -0. -0.
   277  2.76  0.  0.
   278  2.77  0.  0.
   279  2.78  0.  0.
   280  2.79  0.  0.
   281  2.80  0.  0.
   282  2.81  0.  0.
   283  2.82  0.  0.
   284  2.83  0.  0.
   285  2.84  0.  0.
   286  2.85  0.  0.
   287  2.86  0.  0.
   288  2.87  0.  0.
   289  2.88  0.  0.
   290  2.89  0.  0.
   291  2.90  0.  0.
   292  2.91  0.  0.
   293  2.92  0.  0.
   294  2.93  0.  0.
   295  2.94  0.  0.
   296  2.95  0.  0.
   297  2.96  0.  0.
   298  2.97  0.  0.
   299  2.98  0.  0.
   300  2.99  0.  0.
   301  3.00  0.  0.
   302  3.01  0.  0.
   303  3.02  0.  0.
   304  3.03  0.  0.
   305  3.04  0.  0.
   306  3.05  0.  0.
   307  3.06  0.  0.
   308  3.07  0.  0.
   309  3.08  0.  0.
   310  3.09  0.  0.
   311  3.10  0.  0.
   312  3.11  0.  0.
   313  3.12  0.  0.
   314  3.13  0.  0.
   315  3.14  0.  0.
   316  3.15  0.  0.
   317  3.16  0.  0.
   318  3.17  0.  0.
   319  3.18  0.  0.
   320  3.19  0.  0.
   321  3.20  0.  0.
   322  3.21  0.  0.
   323  3.22  0.  0.
   324  3.23  0.  0.
   325  3.24  0.  0.
   326  3.25  0.  0.
   327  3.26  0.  0.
   328  3.27  0.  0.
   329  3.28  0.  0.
   330  3.29  0.  0.
   331  3.30  0.  0.
   332  3.31  0.  0.
   333  3.32  0.  0.
   334  3.33  0.  0.
   335  3.34  0.  0.
   336  3.35  0.  0.
   337  3.36  0.  0.
   338  3.37  0.  0.
   339  3.38  0.  0.
   340  3.39  0.  0.
   341  3.40  0.  0.
   342  3.41  0.  0.
   343  3.42  0.  0.
   344  3.43  0.  0.
   345  3.44  0.  0.
   346  3.45  0.  0.
   347  3.46  0.  0.
   348  3.47  0.  0.
   349  3.48  0.  0.
   350  3.49  0.  0.
   351  3.50  0.  0.
   352  3.51  0.  0.
   353  3.52  0.  0.
   354  3.53  0.  0.
   355  3.54  0.  0.
   356  3.55  0.  0.
   357  3.56  0.  0.
   358  3.57  0.  0.
   359  3.58  0.  0.
   360  3.59  0.  0.
   361  3.60  0.  0.
   362  3.61  0.  0.
   363  3.62  0.  0.
   364  3.63  0.  0.
   365  3.64  0.  0.
   366  3.65  0.  0.
   367  3.66  0.  0.
   368  3.67  0.  0.
   369  3.68  0.  0.
   370  3.69  0.  0.
   371  3.70  0.  0.
   372  3.71  0.  0.
   373  3.72  0.  0.
   374  3.73  0.  0.
   375  3.74  0.  0.
   376  3.75  0.  0.
   377  3.76  0.  0.
   378  3.77  0.  0.
   379  3.78  0.  0.
   380  3.79  0.  0.
   381  3.80  0.  0.
   382  3.81  0.  0.
   383  3.82  0.  0.
   384  3.83  0.  0.
   385  3.84  0.  0.
   386  3.85  0.  0.
   387  3.86  0.  0.
   388  3.87  0.  0.
   389  3.88  0.  0.
   390  3.89  0.  0.
   391  3.90  0.  0.
   392  3.91  0.  0.
   393  3.92  0.  0.
   394  3.93  0.  0.
   395  3.94  0.  0.
   396  3.95  0.  0.
   397  3.96  0.  0.
   398  3.97  0.  0.
   399  3.98  0.  0.
   400  3.99  0.  0.
   401  4.00  0.  0.
   402  4.01  0.  0.
   403  4.02  0.  0.
   404  4.03  0.  0.
   405  4.04  0.  0.
   406  4.05  0.  0.
   407  4.06  0.  0.
   408  4.07  0.  0.
   409  4.08  0.  0.
   410  4.09  0.  0.
   411  4.10  0.  0.
   412  4.11  0.  0.
   413  4.12  0.  0.
   414  4.13  0.  0.
   415  4.14  0.  0.
   416  4.15  0.  0.
   417  4.16  0.  0.
   418  4.17  0.  0.
   419  4.18  0.  0.
   420  4.19  0.  0.
   421  4.20  0.  0.
   422  4.21  0.  0.
   423  4.22  0.  0.
   424  4.23  0.  0.
   425  4.24  0.  0.
   426  4.25  0.  0.
   427  4.26  0.  0.
   428  4.27  0.  0.
   429  4.28  0.  0.
   430  4.29  0.  0.
   431  4.30  0.  0.
   432  4.31  0.  0.
   433  4.32  0.  0.
   434  4.33  0.  0.
   435  4.34  0.  0.
   436  4.35  0.  0.
   437  4.36  0.  0.
   438  4.37  0.  0.
   439  4.38  0.  0.
   440  4.39  0.  0.
   441  4.40  0.  0.
   442  4.41  0.  0.
   443  4.42  0.  0.
   444  4.43  0.  0.
   445  4.44  0.  0.
   446  4.45  0.  0.
   447  4.46  0.  0.
   448  4.47  0.  0.
   449  4.48  0.  0.
   450  4.49  0.  0.
   451  4.50  0.  0.
   452  4.51  0.  0.
   453  4.52  0.  0.
   454  4.53  0.  0.
   455  4.54  0.  0.
   456  4.55  0.  0.
   457  4.56  0.  0.
   458  4.57  0.  0.
   459  4.58  0.  0.
   460  4.59  0.  0.
   461  4.60  0.  0.
   462  4.61  0.  0.
   463  4.62  0.  0.
   464  4.63  0.  0.
   465  4.64  0.  0.
   466  4.65  0.  0.
   467  4.66  0.  0.
   468  4.67  0.  0.
   469  4.68  0.  0.
   470  4.69  0.  0.
   471  4.70  0.  0.
   472  4.71  0.  0.
   473  4.72  0.  0.
   474  4.73  0.  0.
   475  4.74  0.  0.
   476  4.75  0.  0.
   477  4.76  0.  0.
   478  4.77  0.  0.
   479  4.78  0.  0.
   480  4.79  0.  0.
   481  4.80  0.  0.
   482  4.81  0.  0.
   483  4.82  0.  0.
   484  4.83  0.  0.
   485  4.84  0.  0.
   486  4.85  0.  0.
   487  4.86  0.  0.
   488  4.87  0.  0.
   489  4.88  0.  0.
   490  4.89  0.  0.
   491  4.90  0.  0.
   492  4.91  0.  0.
   493  4.92  0.  0.
   494  4.93  0.  0.
   495  4.94  0.  0.
   496  4.95  0.  0.
   497  4.96  0.  0.
   498  4.97  0.  0.
   499  4.98  0.  0.
   500  4.99  0.  0.
   501  5.00  0.  0.
   502  5.01  0.  0.
   503  5.02  0.  0.
   504  5.03  0.  0.
   505  5.04  0.  0.
   506  5.05  0.  0.
   507  5.06  0.  0.
   508  5.07  0.  0.
   509  5.08  0.  0.
   510  5.09  0.  0.
   511  5.10  0.  0.
   512  5.11  0.  0.
   513  5.12  0.  0.
   514  5.13  0.  0.
   515  5.14  0.  0.
   516  5.15  0.  0.
   517  5.16  0.  0.
   518  5.17  0.  0.
   519  5.18  0.  0.
   520  5.19  0.  0.
   521  5.20  0.  0.
   522  5.21  0.  0.
   523  5.22  0.  0.
   524  5.23  0.  0.
   525  5.24  0.  0.
   526  5.25  0.  0.
   527  5.26  0.  0.
   528  5.27  0.  0.
   529  5.28  0.  0.
   530  5.29  0.  0.
   531  5.30  0.  0.
   532  5.31  0.  0.
   533  5.32  0.  0.
   534  5.33  0.  0.
   535  5.34  0.  0.
   536  5.35  0.  0.
   537  5.36  0.  0.
   538  5.37  0.  0.
   539  5.38  0.  0.
   540  5.39  0.  0.
   541  5.40  0.  0.
   542  5.41  0.  0.
   543  5.42  0.  0.
   544  5.43  0.  0.
   545  5.44  0.  0.
   546  5.45  0.  0.
   547  5.46  0.  0.
   548  5.47  0.  0.
   549  5.48  0.  0.
   550  5.49  0.  0.
   551  5.50  0.  0.
   552  5.51  0.  0.
   553  5.52  0.  0.
   554  5.53  0.  0.
   555  5.54  0.  0.
   556  5.55  0.  0.
   557  5.56  0.  0.
   558  5.57  0.  0.
   559  5.58  0.  0.
   560  5.59  0.  0.
   561  5.60  0.  0.
   562  5.61  0.  0.
   563  5.62  0.  0.
   564  5.63  0.  0.
   565  5.64  0.  0.
   566  5.65  0.  0.
   567  5.66  0.  0.
   568  5.67  0.  0.
   569  5.68  0.  0.
   570  5.69  0.  0.
   571  5.70  0.  0.
   572  5.71  0.  0.
   573  5.72  0.  0.
   574  5.73  0.  0.
   575  5.74  0.  0.
   576  5.75  0.  0.
   577  5.76  0.  0.
   578  5.77  0.  0.
   579  5.78  0.  0.
   580  5.79  0.  0.
   581  5.80  0.  0.
   582  5.81  0.  0.
   583  5.82  0.  0.
   584  5.83  0.  0.
   585  5.84  0.  0.
   586  5.85  0.  0.
   587  5.86  0.  0.
   588  5.87  0.  0.
   589  5.88  0.  0.
   590  5.89  0.  0.
   591  5.90  0.  0.
   592  5.91  0.  0.
   593  5.92  0.  0.
   594  5.93  0.  0.
   595  5.94  0.  0.
   596  5.95  0.  0.
   597  5.96  0.  0.
   598  5.97  0.  0.
   599  5.98  0.  0.
   600  5.99  0.  0.
   1                        -2.7558575733507E+00 -5.4892383719819E-01
     1  0.0000000000000E+00  4.5719504571107E-12 -1.7947296426790E-11
     2  1.0000000000000E-02  4.3161244966823E-04 -4.2363873566091E-04
     3  2.0000000000000E-02  1.7258111029521E-03 -1.6934835585791E-03
     4  3.0000000000000E-02  3.8806809503478E-03 -3.8063229715832E-03
     5  4.0000000000000E-02  6.8930338991861E-03 -6.7568133200819E-03
     6  5.0000000000000E-02  1.0758414150171E-02 -1.0537492020118E-02
     7  6.0000000000000E-02  1.5471105708122E-02 -1.5138796011916E-02
     8  7.0000000000000E-02  2.1024142010597E-02 -2.0549085373660E-02
     9  8.0000000000000E-02  2.7409317653469E-02 -2.6754672012261E-02
    10  9.0000000000000E-02  3.4617202188090E-02 -3.3739853330381E-02
    11  1.0000000000000E-01  4.2637155960229E-02 -4.1486950752097E-02
    12  1.1000000000000E-01  5.1457347956699E-02 -4.9976352973404E-02
    13  1.2000000000000E-01  6.1064775621416E-02 -5.9186563788319E-02
    14  1.3000000000000E-01  7.1445286598575E-02 -6.9094254326816E-02
    15  1.4000000000000E-01  8.2583602356758E-02 -7.9674319527230E-02
    16  1.5000000000000E-01  9.4463343644034E-02 -9.0899938653143E-02
    17  1.6000000000000E-01  1.0706705772055E-01 -1.0274263965332E-01
    18  1.7000000000000E-01  1.2037624731177E-01 -1.1517236715288E-01
    19  1.8000000000000E-01  1.3437140122219E-01 -1.2815755385452E-01
    20  1.9000000000000E-01  1.4903202654661E-01 -1.4166519512108E-01
    21  2.0000000000000E-01  1.6433668241293E-01 -1.5566092650333E-01
    22  2.1000000000000E-01  1.8026301518814E-01 -1.7010910397198E-01
    23  2.2000000000000E-01  1.9678779507655E-01 -1.8497288660836E-01
    24  2.3000000000000E-01  2.1388695403741E-01 -2.0021432150530E-01
    25  2.4000000000000E-01  2.3153562494690E-01 -2.1579443062798E-01
    26  2.5000000000000E-01  2.4970818192783E-01 -2.3167329938430E-01
    27  2.6000000000000E-01  2.6837828176895E-01 -2.4781016665442E-01
    28  2.7000000000000E-01  2.8751890635446E-01 -2.6416351603171E-01
    29  2.8000000000000E-01  3.0710240602303E-01 -2.8069116802962E-01
    30  2.9000000000000E-01  3.2710054377522E-01 -2.9735037301344E-01
    31  3.0000000000000E-01  3.4748454024709E-01 -3.1409790462070E-01
    32  3.1000000000000E-01  3.6822511936749E-01 -3.3089015343981E-01
    33  3.2000000000000E-01  3.8929255461647E-01 -3.4768322072345E-01
    34  3.3000000000000E-01  4.1065671580180E-01 -3.6443301192061E-01
    35  3.4000000000000E-01  4.3228711627096E-01 -3.8109532981927E-01
    36  3.5000000000000E-01  4.5415296047617E-01 -3.9762596710063E-01
    37  3.6000000000000E-01  4.7622319181039E-01 -4.1398079811489E-01
    38  3.7000000000000E-01  4.9846654063296E-01 -4.3011586969827E-01
    39  3.8000000000000E-01  5.2085157240406E-01 -4.4598749086100E-01
    40  3.9000000000000E-01  5.4334673584832E-01 -4.6155232118587E-01
    41  4.0000000000000E-01  5.6592041106854E-01 -4.7676745778761E-01
    42  4.1000000000000E-01  5.8854095753202E-01 -4.9159052069317E-01
    43  4.2000000000000E-01  6.1117676185267E-01 -5.0597973651370E-01
    44  4.3000000000000E-01  6.3379628529393E-01 -5.1989402028845E-01
    45  4.4000000000000E-01  6.5636811091843E-01 -5.3329305539145E-01
    46  4.5000000000000E-01  6.7886099031204E-01 -5.4613737140034E-01
    47  4.6000000000000E-01  7.0124388981141E-01 -5.5838841983686E-01
    48  4.7000000000000E-01  7.2348603616569E-01 -5.7000864769619E-01
    49  4.8000000000000E-01  7.4555696156463E-01 -5.8096156869131E-01
    50  4.9000000000000E-01  7.6742654796719E-01 -5.9121183214552E-01
    51  5.0000000000000E-01  7.8906507066613E-01 -6.0072528947352E-01