Ir    ONCVPSP-4.0.1  r_core=   2.54643   2.56171   2.60810   2.57708
     77.0000     17.0000      220801    zatom,zion,pspd
     8      11   3     4   500     0    pspcod,pspxc,lmax,lloc,mmax,r2well
  4.99000000  5.00000000  0.00000000    rchrg fchrg qchrg
     2     2     2     2     0    nproj
     1     1           extension_switch
   0                        -2.7710708374980E+00 -1.3252904824049E-01
     1  0.0000000000000E+00 -1.3195000647670E-13 -1.5381307338913E-12
     2  1.0000000000000E-02  2.8528614359445E-02  2.9982025094091E-02
     3  2.0000000000000E-02  5.7038391807307E-02  5.9890650015139E-02
     4  3.0000000000000E-02  8.5510513916079E-02  8.9652642795497E-02
     5  4.0000000000000E-02  1.1392619920394E-01  1.1919510753819E-01
     6  5.0000000000000E-02  1.4226672155144E-01  1.4844565160231E-01
     7  6.0000000000000E-02  1.7051342855090E-01  1.7733255176963E-01
     8  7.0000000000000E-02  1.9864775976627E-01  2.0578491905458E-01
     9  8.0000000000000E-02  2.2665126488116E-01  2.3373286182133E-01
    10  9.0000000000000E-02  2.5450562171328E-01  2.6110764687376E-01
    11  1.0000000000000E-01  2.8219265407324E-01  2.8784185818649E-01
    12  1.1000000000000E-01  3.0969434944625E-01  3.1386955294763E-01
    13  1.2000000000000E-01  3.3699287647534E-01  3.3912641458780E-01
    14  1.3000000000000E-01  3.6407060222509E-01  3.6354990247293E-01
    15  1.4000000000000E-01  3.9091010920499E-01  3.8707939794312E-01
    16  1.5000000000000E-01  4.1749421213211E-01  4.0965634638405E-01
    17  1.6000000000000E-01  4.4380597441310E-01  4.3122439502303E-01
    18  1.7000000000000E-01  4.6982872432556E-01  4.5172952614694E-01
    19  1.8000000000000E-01  4.9554607087997E-01  4.7112018544596E-01
    20  1.9000000000000E-01  5.2094191934293E-01  4.8934740519357E-01
    21  2.0000000000000E-01  5.4600048640372E-01  5.0636492198060E-01
    22  2.1000000000000E-01  5.7070631496621E-01  5.2212928872910E-01
    23  2.2000000000000E-01  5.9504428854875E-01  5.3659998072050E-01
    24  2.3000000000000E-01  6.1899964527538E-01  5.4973949538120E-01
    25  2.4000000000000E-01  6.4255799144202E-01  5.6151344557923E-01
    26  2.5000000000000E-01  6.6570531464218E-01  5.7189064619538E-01
    27  2.6000000000000E-01  6.8842799643691E-01  5.8084319374385E-01
    28  2.7000000000000E-01  7.1071282455488E-01  5.8834653882882E-01
    29  2.8000000000000E-01  7.3254700460852E-01  5.9437955123609E-01
    30  2.9000000000000E-01  7.5391817131337E-01  5.9892457747190E-01
    31  3.0000000000000E-01  7.7481439919806E-01  6.0196749057492E-01
    32  3.1000000000000E-01  7.9522421279314E-01  6.0349773204181E-01
    33  3.2000000000000E-01  8.1513659628784E-01  6.0350834572193E-01
    34  3.3000000000000E-01  8.3454100264433E-01  6.0199600355265E-01
    35  3.4000000000000E-01  8.5342736215991E-01  5.9896102302302E-01
    36  3.5000000000000E-01  8.7178609046818E-01  5.9440737627081E-01
    37  3.6000000000000E-01  8.8960809597116E-01  5.8834269073543E-01
    38  3.7000000000000E-01  9.0688478669502E-01  5.8077824130771E-01
    39  3.8000000000000E-01  9.2360807656255E-01  5.7172893393632E-01
    40  3.9000000000000E-01  9.3977039107693E-01  5.6121328066965E-01
    41  4.0000000000000E-01  9.5536467241134E-01  5.4925336613248E-01
    42  4.1000000000000E-01  9.7038438390033E-01  5.3587480545620E-01
    43  4.2000000000000E-01  9.8482351392944E-01  5.2110669370286E-01
    44  4.3000000000000E-01  9.9867657922021E-01  5.0498154684367E-01
    45  4.4000000000000E-01  1.0119386275087E+00  4.8753523437437E-01
    46  4.5000000000000E-01  1.0246052396166E+00  4.6880690367115E-01
    47  4.6000000000000E-01  1.0366725309137E+00  4.4883889621289E-01
    48  4.7000000000000E-01  1.0481371521736E+00  4.2767665581677E-01
    49  4.8000000000000E-01  1.0589962898220E+00  4.0536862905698E-01
    50  4.9000000000000E-01  1.0692476655814E+00  3.8196615805728E-01
    51  5.0000000000000E-01  1.0788895355132E+00  3.5752336587086E-01
    52  5.1000000000000E-01  1.0879206884620E+00  3.3209703468165E-01
    53  5.2000000000000E-01  1.0963404439058E+00  3.0574647708325E-01
    54  5.3000000000000E-01  1.1041486492168E+00  2.7853340071247E-01
    55  5.4000000000000E-01  1.1113456763387E+00  2.5052176653497E-01
    56  5.5000000000000E-01  1.1179324178882E+00  2.2177764110075E-01
    57  5.6000000000000E-01  1.1239102826853E+00  1.9236904310697E-01
    58  5.7000000000000E-01  1.1292811907226E+00  1.6236578462396E-01
    59  5.8000000000000E-01  1.1340475675814E+00  1.3183930735908E-01
    60  5.9000000000000E-01  1.1382123383035E+00  1.0086251435006E-01
    61  6.0000000000000E-01  1.1417789207293E+00  6.9509597495936E-02
    62  6.1000000000000E-01  1.1447512183120E+00  3.7855861349286E-02
    63  6.2000000000000E-01  1.1471336124206E+00  5.9775436079437E-03
    64  6.3000000000000E-01  1.1489309541413E+00 -2.6048367242657E-02
    65  6.4000000000000E-01  1.1501485555928E+00 -5.8144316672757E-02
    66  6.5000000000000E-01  1.1507921807652E+00 -9.0232370763078E-02
    67  6.6000000000000E-01  1.1508680358994E+00 -1.2223440428712E-01
    68  6.7000000000000E-01  1.1503827594187E+00 -1.5407228972910E-01
    69  6.8000000000000E-01  1.1493434114293E+00 -1.8566808673895E-01
    70  6.9000000000000E-01  1.1477574628030E+00 -2.1694423152047E-01
    71  7.0000000000000E-01  1.1456327838605E+00 -2.4782372564507E-01
    72  7.1000000000000E-01  1.1429776326688E+00 -2.7823032378195E-01
    73  7.2000000000000E-01  1.1398006429715E+00 -3.0808871983423E-01
    74  7.3000000000000E-01  1.1361108117680E+00 -3.3732473097269E-01
    75  7.4000000000000E-01  1.1319174865603E+00 -3.6586547906087E-01
    76  7.5000000000000E-01  1.1272303522836E+00 -3.9363956897021E-01
    77  7.6000000000000E-01  1.1220594179417E+00 -4.2057726329006E-01
    78  7.7000000000000E-01  1.1164150029625E+00 -4.4661065294502E-01
    79  7.8000000000000E-01  1.1103077232964E+00 -4.7167382324202E-01
    80  7.9000000000000E-01  1.1037484772736E+00 -4.9570301488039E-01
    81  8.0000000000000E-01  1.0967484312417E+00 -5.1863677947126E-01
    82  8.1000000000000E-01  1.0893190050036E+00 -5.4041612912706E-01
    83  8.2000000000000E-01  1.0814718570738E+00 -5.6098467969762E-01
    84  8.3000000000000E-01  1.0732188697763E+00 -5.8028878724759E-01
    85  8.4000000000000E-01  1.0645721342010E+00 -5.9827767738817E-01
    86  8.5000000000000E-01  1.0555439350427E+00 -6.1490356709707E-01
    87  8.6000000000000E-01  1.0461467353404E+00 -6.3012177868243E-01
    88  8.7000000000000E-01  1.0363931611389E+00 -6.4389084556927E-01
    89  8.8000000000000E-01  1.0262959860935E+00 -6.5617260961159E-01
    90  8.9000000000000E-01  1.0158681160385E+00 -6.6693230965855E-01
    91  9.0000000000000E-01  1.0051225735392E+00 -6.7613866112972E-01
    92  9.1000000000000E-01  9.9407248244981E-01 -6.8376392638171E-01
    93  9.2000000000000E-01  9.8273105249650E-01 -6.8978397567681E-01
    94  9.3000000000000E-01  9.7111156390658E-01 -6.9417833859326E-01
    95  9.4000000000000E-01  9.5922735210437E-01 -6.9693024574647E-01
    96  9.5000000000000E-01  9.4709179249352E-01 -6.9802666072042E-01
    97  9.6000000000000E-01  9.3471828534617E-01 -6.9745830213944E-01
    98  9.7000000000000E-01  9.2212024081852E-01 -6.9521965584109E-01
    99  9.8000000000000E-01  9.0931106411234E-01 -6.9130897714193E-01
   100  9.9000000000000E-01  8.9630414080169E-01 -6.8572828321932E-01
   101  1.0000000000000E+00  8.8311282234383E-01 -6.7848333566309E-01
   102  1.0100000000000E+00  8.6975041179266E-01 -6.6958361328199E-01
   103  1.0200000000000E+00  8.5623014973318E-01 -6.5904227528005E-01
   104  1.0300000000000E+00  8.4256520045440E-01 -6.4687611494869E-01
   105  1.0400000000000E+00  8.2876863837843E-01 -6.3310550404906E-01
   106  1.0500000000000E+00  8.1485343476224E-01 -6.1775432808901E-01
   107  1.0600000000000E+00  8.0083244468878E-01 -6.0084991272630E-01
   108  1.0700000000000E+00  7.8671839436319E-01 -5.8242294155751E-01
   109  1.0800000000000E+00  7.7252386872939E-01 -5.6250736557804E-01
   110  1.0900000000000E+00  7.5826129942198E-01 -5.4114030462390E-01
   111  1.1000000000000E+00  7.4394295306735E-01 -5.1836194112984E-01
   112  1.1100000000000E+00  7.2958091994782E-01 -4.9421540656096E-01
   113  1.1200000000000E+00  7.1518710304146E-01 -4.6874666089657E-01
   114  1.1300000000000E+00  7.0077320745005E-01 -4.4200436556450E-01
   115  1.1400000000000E+00  6.8635073022657E-01 -4.1403975024266E-01
   116  1.1500000000000E+00  6.7193095061307E-01 -3.8490647396125E-01
   117  1.1600000000000E+00  6.5752492069923E-01 -3.5466048095405E-01
   118  1.1700000000000E+00  6.4314345651077E-01 -3.2335985172083E-01
   119  1.1800000000000E+00  6.2879712953644E-01 -2.9106464977406E-01
   120  1.1900000000000E+00  6.1449625870150E-01 -2.5783676455344E-01
   121  1.2000000000000E+00  6.0025090279467E-01 -2.2373975099926E-01
   122  1.2100000000000E+00  5.8607085335493E-01 -1.8883866628222E-01
   123  1.2200000000000E+00  5.7196562802352E-01 -1.5319990419132E-01
   124  1.2300000000000E+00  5.5794446436597E-01 -1.1689102768377E-01
   125  1.2400000000000E+00  5.4401631416786E-01 -7.9980600102047E-02
   126  1.2500000000000E+00  5.3018983820742E-01 -4.2538015561100E-02
   127  1.2600000000000E+00  5.1647340150713E-01 -4.6333290064166E-03
   128  1.2700000000000E+00  5.0287506906567E-01  3.3662913561746E-02
   129  1.2800000000000E+00  4.8940260207079E-01  7.2279844208983E-02
   130  1.2900000000000E+00  4.7606345459276E-01  1.1114644105186E-01
   131  1.3000000000000E+00  4.6286477075729E-01  1.5019169463674E-01
   132  1.3100000000000E+00  4.4981338239602E-01  1.8934477225385E-01
   133  1.3200000000000E+00  4.3691580717173E-01  2.2853517974029E-01
   134  1.3300000000000E+00  4.2417824717486E-01  2.6769292034142E-01
   135  1.3400000000000E+00  4.1160658798682E-01  3.0674865021502E-01
   136  1.3500000000000E+00  3.9920639820504E-01  3.4563383018069E-01
   137  1.3600000000000E+00  3.8698292942395E-01  3.8428087333508E-01
   138  1.3700000000000E+00  3.7494111666501E-01  4.2262328817321E-01
   139  1.3800000000000E+00  3.6308557924870E-01  4.6059581687703E-01
   140  1.3900000000000E+00  3.5142062210006E-01  4.9813456845374E-01
   141  1.4000000000000E+00  3.3995023747930E-01  5.3517714642878E-01
   142  1.4100000000000E+00  3.2867810712778E-01  5.7166277082179E-01
   143  1.4200000000000E+00  3.1760760481938E-01  6.0753239415721E-01
   144  1.4300000000000E+00  3.0674179930649E-01  6.4272881128573E-01
   145  1.4400000000000E+00  2.9608345764930E-01  6.7719676281708E-01
   146  1.4500000000000E+00  2.8563504891657E-01  7.1088303198987E-01
   147  1.4600000000000E+00  2.7539874824530E-01  7.4373653482889E-01
   148  1.4700000000000E+00  2.6537644124655E-01  7.7570840346554E-01
   149  1.4800000000000E+00  2.5556972874390E-01  8.0675206252225E-01
   150  1.4900000000000E+00  2.4597993183073E-01  8.3682329848593E-01
   151  1.5000000000000E+00  2.3660809723205E-01  8.6588032202105E-01
   152  1.5100000000000E+00  2.2745500295628E-01  8.9388382319639E-01
   153  1.5200000000000E+00  2.1852116422206E-01  9.2079701962349E-01
   154  1.5300000000000E+00  2.0980683964467E-01  9.4658569752819E-01
   155  1.5400000000000E+00  2.0131203766668E-01  9.7121824579884E-01
   156  1.5500000000000E+00  1.9303652321704E-01  9.9466568307692E-01
   157  1.5600000000000E+00  1.8497982458259E-01  1.0169016779764E+00
   158  1.5700000000000E+00  1.7714124047591E-01  1.0379025625387E+00
   159  1.5800000000000E+00  1.6951984728334E-01  1.0576473390488E+00
   160  1.5900000000000E+00  1.6211450647679E-01  1.0761176803562E+00
   161  1.6000000000000E+00  1.5492387217305E-01  1.0932979238626E+00
   162  1.6100000000000E+00  1.4794639882417E-01  1.1091750593515E+00
   163  1.6200000000000E+00  1.4118034902272E-01  1.1237387108526E+00
   164  1.6300000000000E+00  1.3462380140554E-01  1.1369811127463E+00
   165  1.6400000000000E+00  1.2827465863991E-01  1.1488970803237E+00
   166  1.6500000000000E+00  1.2213065547614E-01  1.1594839750340E+00
   167  1.6600000000000E+00  1.1618936685066E-01  1.1687416646537E+00
   168  1.6700000000000E+00  1.1044821602415E-01  1.1766724786284E+00
   169  1.6800000000000E+00  1.0490448273917E-01  1.1832811588379E+00
   170  1.6900000000000E+00  9.9555311382163E-02  1.1885748060467E+00
   171  1.7000000000000E+00  9.4397719135266E-02  1.1925628223050E+00
   172  1.7100000000000E+00  8.9428604103135E-02  1.1952568495663E+00
   173  1.7200000000000E+00  8.4644753400889E-02  1.1966707047952E+00
   174  1.7300000000000E+00  8.0042851189385E-02  1.1968203118347E+00
   175  1.7400000000000E+00  7.5619486644496E-02  1.1957236303065E+00
   176  1.7500000000000E+00  7.1371161847555E-02  1.1934005818132E+00
   177  1.7600000000000E+00  6.7294299584530E-02  1.1898729737122E+00
   178  1.7700000000000E+00  6.3385251042025E-02  1.1851644207258E+00
   179  1.7800000000000E+00  5.9640303388665E-02  1.1793002646483E+00
   180  1.7900000000000E+00  5.6055687230970E-02  1.1723074924066E+00
   181  1.8000000000000E+00  5.2627583933346E-02  1.1642146527238E+00
   182  1.8100000000000E+00  4.9352132792378E-02  1.1550517716291E+00
   183  1.8200000000000E+00  4.6225438056152E-02  1.1448502670508E+00
   184  1.8300000000000E+00  4.3243575779958E-02  1.1336428627193E+00
   185  1.8400000000000E+00  4.0402600510240E-02  1.1214635016004E+00
   186  1.8500000000000E+00  3.7698551789309E-02  1.1083472590685E+00
   187  1.8600000000000E+00  3.5127460473892E-02  1.0943302560215E+00
   188  1.8700000000000E+00  3.2685354861226E-02  1.0794495721276E+00
   189  1.8800000000000E+00  3.0368266616964E-02  1.0637431593846E+00
   190  1.8900000000000E+00  2.8172236499815E-02  1.0472497561639E+00
   191  1.9000000000000E+00  2.6093319878385E-02  1.0300088018976E+00
   192  1.9100000000000E+00  2.4127592036345E-02  1.0120603525590E+00
   193  1.9200000000000E+00  2.2271153262596E-02  9.9344499707526E-01
   194  1.9300000000000E+00  2.0520133723717E-02  9.7420377480093E-01
   195  1.9400000000000E+00  1.8870698116555E-02  9.5437809417046E-01
   196  1.9500000000000E+00  1.7319050099394E-02  9.3400965263702E-01
   197  1.9600000000000E+00  1.5861436500691E-02  9.1314035799612E-01
   198  1.9700000000000E+00  1.4494151304925E-02  8.9181225118182E-01
   199  1.9800000000000E+00  1.3213539415633E-02  8.7006743061426E-01
   200  1.9900000000000E+00  1.2016000196248E-02  8.4794797816820E-01
   201  2.0000000000000E+00  1.0897990789843E-02  8.2549588682358E-01
   202  2.0100000000000E+00  9.8560292193610E-03  8.0275299005098E-01
   203  2.0200000000000E+00  8.8866972704312E-03  7.7976089297681E-01
   204  2.0300000000000E+00  7.9866431592779E-03  7.5656090536607E-01
   205  2.0400000000000E+00  7.1525839886848E-03  7.3319397645375E-01
   206  2.0500000000000E+00  6.3813079953874E-03  7.0970063164929E-01
   207  2.0600000000000E+00  5.6696765926660E-03  6.8612091113356E-01
   208  2.0700000000000E+00  5.0146262122572E-03  6.6249431036181E-01
   209  2.0800000000000E+00  4.4131699500913E-03  6.3885972248181E-01
   210  2.0900000000000E+00  3.8623990206581E-03  6.1525538267250E-01
   211  2.1000000000000E+00  3.3594840251169E-03  5.9171881440428E-01
   212  2.1100000000000E+00  2.9016760385548E-03  5.6828677761955E-01
   213  2.1200000000000E+00  2.4863075220270E-03  5.4499521882943E-01
   214  2.1300000000000E+00  2.1107930652885E-03  5.2187922312034E-01
   215  2.1400000000000E+00  1.7726299662964E-03  4.9897296806258E-01
   216  2.1500000000000E+00  1.4693986537672E-03  4.7630967951209E-01
   217  2.1600000000000E+00  1.1987629592322E-03  4.5392158929558E-01
   218  2.1700000000000E+00  9.5847024516014E-04  4.3183989476897E-01
   219  2.1800000000000E+00  7.4635139585287E-04  4.1009472023899E-01
   220  2.1900000000000E+00  5.6032067789192E-04  3.8871508023824E-01
   221  2.2000000000000E+00  3.9837547698393E-04  3.6772884464454E-01
   222  2.2100000000000E+00  2.5859591810667E-04  3.4716270563612E-01
   223  2.2200000000000E+00  1.3914437587818E-04  3.2704214647547E-01
   224  2.2300000000000E+00  3.8264882069720E-05  3.0739141211581E-01
   225  2.2400000000000E+00 -4.5717562839643E-05  2.8823348162561E-01
   226  2.2500000000000E+00 -1.1439776719524E-04  2.6959004242779E-01
   227  2.2600000000000E+00 -1.6929120798515E-04  2.5148146635214E-01
   228  2.2700000000000E+00 -2.1183496621916E-04  2.3392678750095E-01
   229  2.2800000000000E+00 -2.4338873125340E-04  2.1694368192936E-01
   230  2.2900000000000E+00 -2.6523586753154E-04  2.0054844914343E-01
   231  2.3000000000000E+00 -2.7858453737299E-04  1.8475599542058E-01
   232  2.3100000000000E+00 -2.8456887357753E-04  1.6957981895842E-01
   233  2.3200000000000E+00 -2.8425019580680E-04  1.5503199685906E-01
   234  2.3300000000000E+00 -2.7861826480699E-04  1.4112317395720E-01
   235  2.3400000000000E+00 -2.6859256882622E-04  1.2786255350130E-01
   236  2.3500000000000E+00 -2.5502363673815E-04  1.1525788969784E-01
   237  2.3600000000000E+00 -2.3869437259931E-04  1.0331548212908E-01
   238  2.3700000000000E+00 -2.2032140659457E-04  9.2040172055344E-02
   239  2.3800000000000E+00 -2.0055630695166E-04  8.1435341673687E-02
   240  2.3900000000000E+00 -1.7998824536366E-04  7.1502904643953E-02
   241  2.4000000000000E+00 -1.5914128724891E-04  6.2243339815318E-02
   242  2.4100000000000E+00 -1.3848137139880E-04  5.3655649571195E-02
   243  2.4200000000000E+00 -1.1842449526666E-04  4.5737311758283E-02
   244  2.4300000000000E+00 -9.9416141913277E-05  3.8483799055447E-02
   245  2.4400000000000E+00 -8.1820171252830E-05  3.1889384879700E-02
   246  2.4500000000000E+00 -6.5807576181773E-05  2.5947915770721E-02
   247  2.4600000000000E+00 -5.1507885901766E-05  2.0651679021516E-02
   248  2.4700000000000E+00 -3.9011407684789E-05  1.5991420399534E-02
   249  2.4800000000000E+00 -2.8360733893029E-05  1.1956454618107E-02
   250  2.4900000000000E+00 -1.9554681273911E-05  8.5346701397508E-03
   251  2.5000000000000E+00 -1.2548832805478E-05  5.7125649831222E-03
   252  2.5100000000000E+00 -7.2580587483122E-06  3.4765581007884E-03
   253  2.5200000000000E+00 -3.5414367511504E-06  1.8015173704922E-03
   254  2.5300000000000E+00 -1.2538401410560E-06  6.8653629922061E-04
   255  2.5400000000000E+00 -2.1748922397467E-07  1.3204180234711E-04
   256  2.5500000000000E+00  4.0181451449670E-08 -2.4712549050617E-05
   257  2.5600000000000E+00  1.0002117290959E-08 -6.6362550132954E-06
   258  2.5700 -0.  0.
   259  2.5800  0. -0.
   260  2.5900  0. -0.
   261  2.6000 -0. -0.
   262  2.6100  0.  0.
   263  2.6200  0.  0.
   264  2.6300  0.  0.
   265  2.6400  0.  0.
   266  2.6500  0.  0.
   267  2.6600  0.  0.
   268  2.6700  0.  0.
   269  2.6800  0.  0.
   270  2.6900  0.  0.
   271  2.7000  0.  0.
   272  2.7100  0.  0.
   273  2.7200  0.  0.
   274  2.7300  0.  0.
   275  2.7400  0.  0.
   276  2.7500  0.  0.
   277  2.7600  0.  0.
   278  2.7700  0.  0.
   279  2.7800  0.  0.
   280  2.7900  0.  0.
   281  2.8000  0.  0.
   282  2.8100  0.  0.
   283  2.8200  0.  0.
   284  2.8300  0.  0.
   285  2.8400  0.  0.
   286  2.8500  0.  0.
   287  2.8600  0.  0.
   288  2.8700  0.  0.
   289  2.8800  0.  0.
   290  2.8900  0.  0.
   291  2.9000  0.  0.
   292  2.9100  0.  0.
   293  2.9200  0.  0.
   294  2.9300  0.  0.
   295  2.9400  0.  0.
   296  2.9500  0.  0.
   297  2.9600  0.  0.
   298  2.9700  0.  0.
   299  2.9800  0.  0.
   300  2.9900  0.  0.
   301  3.0000  0.  0.
   302  3.0100  0.  0.
   303  3.0200  0.  0.
   304  3.0300  0.  0.
   305  3.0400  0.  0.
   306  3.0500  0.  0.
   307  3.0600  0.  0.
   308  3.0700  0.  0.
   309  3.0800  0.  0.
   310  3.0900  0.  0.
   311  3.1000  0.  0.
   312  3.1100  0.  0.
   313  3.1200  0.  0.
   314  3.1300  0.  0.
   315  3.1400  0.  0.
   316  3.1500  0.  0.
   317  3.1600  0.  0.
   318  3.1700  0.  0.
   319  3.1800  0.  0.
   320  3.1900  0.  0.
   321  3.2000  0.  0.
   322  3.2100  0.  0.
   323  3.2200  0.  0.
   324  3.2300  0.  0.
   325  3.2400  0.  0.
   326  3.2500  0.  0.
   327  3.2600  0.  0.
   328  3.2700  0.  0.
   329  3.2800  0.  0.
   330  3.2900  0.  0.
   331  3.3000  0.  0.
   332  3.3100  0.  0.
   333  3.3200  0.  0.
   334  3.3300  0.  0.
   335  3.3400  0.  0.
   336  3.3500  0.  0.
   337  3.3600  0.  0.
   338  3.3700  0.  0.
   339  3.3800  0.  0.
   340  3.3900  0.  0.
   341  3.4000  0.  0.
   342  3.4100  0.  0.
   343  3.4200  0.  0.
   344  3.4300  0.  0.
   345  3.4400  0.  0.
   346  3.4500  0.  0.
   347  3.4600  0.  0.
   348  3.4700  0.  0.
   349  3.4800  0.  0.
   350  3.4900  0.  0.
   351  3.5000  0.  0.
   352  3.5100  0.  0.
   353  3.5200  0.  0.
   354  3.5300  0.  0.
   355  3.5400  0.  0.
   356  3.5500  0.  0.
   357  3.5600  0.  0.
   358  3.5700  0.  0.
   359  3.5800  0.  0.
   360  3.5900  0.  0.
   361  3.6000  0.  0.
   362  3.6100  0.  0.
   363  3.6200  0.  0.
   364  3.6300  0.  0.
   365  3.6400  0.  0.
   366  3.6500  0.  0.
   367  3.6600  0.  0.
   368  3.6700  0.  0.
   369  3.6800  0.  0.
   370  3.6900  0.  0.
   371  3.7000  0.  0.
   372  3.7100  0.  0.
   373  3.7200  0.  0.
   374  3.7300  0.  0.
   375  3.7400  0.  0.
   376  3.7500  0.  0.
   377  3.7600  0.  0.
   378  3.7700  0.  0.
   379  3.7800  0.  0.
   380  3.7900  0.  0.
   381  3.8000  0.  0.
   382  3.8100  0.  0.
   383  3.8200  0.  0.
   384  3.8300  0.  0.
   385  3.8400  0.  0.
   386  3.8500  0.  0.
   387  3.8600  0.  0.
   388  3.8700  0.  0.
   389  3.8800  0.  0.
   390  3.8900  0.  0.
   391  3.9000  0.  0.
   392  3.9100  0.  0.
   393  3.9200  0.  0.
   394  3.9300  0.  0.
   395  3.9400  0.  0.
   396  3.9500  0.  0.
   397  3.9600  0.  0.
   398  3.9700  0.  0.
   399  3.9800  0.  0.
   400  3.9900  0.  0.
   401  4.0000  0.  0.
   402  4.0100  0.  0.
   403  4.0200  0.  0.
   404  4.0300  0.  0.
   405  4.0400  0.  0.
   406  4.0500  0.  0.
   407  4.0600  0.  0.
   408  4.0700  0.  0.
   409  4.0800  0.  0.
   410  4.0900  0.  0.
   411  4.1000  0.  0.
   412  4.1100  0.  0.
   413  4.1200  0.  0.
   414  4.1300  0.  0.
   415  4.1400  0.  0.
   416  4.1500  0.  0.
   417  4.1600  0.  0.
   418  4.1700  0.  0.
   419  4.1800  0.  0.
   420  4.1900  0.  0.
   421  4.2000  0.  0.
   422  4.2100  0.  0.
   423  4.2200  0.  0.
   424  4.2300  0.  0.
   425  4.2400  0.  0.
   426  4.2500  0.  0.
   427  4.2600  0.  0.
   428  4.2700  0.  0.
   429  4.2800  0.  0.
   430  4.2900  0.  0.
   431  4.3000  0.  0.
   432  4.3100  0.  0.
   433  4.3200  0.  0.
   434  4.3300  0.  0.
   435  4.3400  0.  0.
   436  4.3500  0.  0.
   437  4.3600  0.  0.
   438  4.3700  0.  0.
   439  4.3800  0.  0.
   440  4.3900  0.  0.
   441  4.4000  0.  0.
   442  4.4100  0.  0.
   443  4.4200  0.  0.
   444  4.4300  0.  0.
   445  4.4400  0.  0.
   446  4.4500  0.  0.
   447  4.4600  0.  0.
   448  4.4700  0.  0.
   449  4.4800  0.  0.
   450  4.4900  0.  0.
   451  4.5000  0.  0.
   452  4.5100  0.  0.
   453  4.5200  0.  0.
   454  4.5300  0.  0.
   455  4.5400  0.  0.
   456  4.5500  0.  0.
   457  4.5600  0.  0.
   458  4.5700  0.  0.
   459  4.5800  0.  0.
   460  4.5900  0.  0.
   461  4.6000  0.  0.
   462  4.6100  0.  0.
   463  4.6200  0.  0.
   464  4.6300  0.  0.
   465  4.6400  0.  0.
   466  4.6500  0.  0.
   467  4.6600  0.  0.
   468  4.6700  0.  0.
   469  4.6800  0.  0.
   470  4.6900  0.  0.
   471  4.7000  0.  0.
   472  4.7100  0.  0.
   473  4.7200  0.  0.
   474  4.7300  0.  0.
   475  4.7400  0.  0.
   476  4.7500  0.  0.
   477  4.7600  0.  0.
   478  4.7700  0.  0.
   479  4.7800  0.  0.
   480  4.7900  0.  0.
   481  4.8000  0.  0.
   482  4.8100  0.  0.
   483  4.8200  0.  0.
   484  4.8300  0.  0.
   485  4.8400  0.  0.
   486  4.8500  0.  0.
   487  4.8600  0.  0.
   488  4.8700  0.  0.
   489  4.8800  0.  0.
   490  4.8900  0.  0.
   491  4.9000  0.  0.
   492  4.9100  0.  0.
   493  4.9200  0.  0.
   494  4.9300  0.  0.
   495  4.9400  0.  0.
   496  4.9500  0.  0.
   497  4.9600  0.  0.
   498  4.9700  0.  0.
   499  4.9800  0.  0.
   500  4.9900  0.  0.
   1                        -2.7604698476796E+00 -5.4908140660204E-01
     1  0.0000000000000E+00 -1.5365139716117E-13  2.1502376268412E-11
     2  1.0000000000000E-02  4.2949690687163E-04 -3.9441296232931E-04
     3  2.0000000000000E-02  1.7173879190128E-03 -1.5768645904333E-03
     4  3.0000000000000E-02  3.8618746632277E-03 -3.5449932458531E-03
     5  4.0000000000000E-02  6.8599623584197E-03 -6.2948633368139E-03
     6  5.0000000000000E-02  1.0707463577484E-02 -9.8209660680147E-03
     7  6.0000000000000E-02  1.5399003515009E-02 -1.4116220572218E-02
     8  7.0000000000000E-02  2.0928026761730E-02 -1.9171975504759E-02
     9  8.0000000000000E-02  2.7286805586862E-02 -2.4978011203607E-02
    10  9.0000000000000E-02  3.4466449729426E-02 -3.1522542538390E-02
    11  1.0000000000000E-01  4.2456917699650E-02 -3.8792222591182E-02
    12  1.1000000000000E-01  5.1247029591320E-02 -4.6772147329774E-02
    13  1.2000000000000E-01  6.0824481405558E-02 -5.5445861450460E-02
    14  1.3000000000000E-01  7.1175860886031E-02 -6.4795365581859E-02
    15  1.4000000000000E-01  8.2286664864821E-02 -7.4801125053615E-02
    16  1.5000000000000E-01  9.4141318117323E-02 -8.5442080444301E-02
    17  1.6000000000000E-01  1.0672319372341E-01 -9.6695660130695E-02
    18  1.7000000000000E-01  1.2001463493074E-01 -1.0853779506638E-01
    19  1.8000000000000E-01  1.3399697851461E-01 -1.2094293602069E-01
    20  1.9000000000000E-01  1.4865057962687E-01 -1.3388407350966E-01
    21  2.0000000000000E-01  1.6395483812443E-01 -1.4733276064868E-01
    22  2.1000000000000E-01  1.7988822636583E-01 -1.6125913915195E-01
    23  2.2000000000000E-01  1.9642831846146E-01 -1.7563196869658E-01
    24  2.3000000000000E-01  2.1355182096089E-01 -1.9041865985935E-01
    25  2.4000000000000E-01  2.3123460495725E-01 -2.0558531082184E-01
    26  2.5000000000000E-01  2.4945173958603E-01 -2.2109674802459E-01
    27  2.6000000000000E-01  2.6817752689196E-01 -2.3691657093370E-01
    28  2.7000000000000E-01  2.8738553803441E-01 -2.5300720106383E-01
    29  2.8000000000000E-01  3.0704865079780E-01 -2.6932993537934E-01
    30  2.9000000000000E-01  3.2713908837004E-01 -2.8584500417186E-01
    31  3.0000000000000E-01  3.4762845934771E-01 -3.0251163348671E-01
    32  3.1000000000000E-01  3.6848779892299E-01 -3.1928811214287E-01
    33  3.2000000000000E-01  3.8968761120282E-01 -3.3613186336285E-01
    34  3.3000000000000E-01  4.1119791260692E-01 -3.5299952099799E-01
    35  3.4000000000000E-01  4.3298827628689E-01 -3.6984701030385E-01
    36  3.5000000000000E-01  4.5502787750422E-01 -3.8662963318786E-01
    37  3.6000000000000E-01  4.7728553990111E-01 -4.0330215781922E-01
    38  3.7000000000000E-01  4.9972978259341E-01 -4.1981891245722E-01
    39  3.8000000000000E-01  5.2232886801132E-01 -4.3613388332185E-01
    40  3.9000000000000E-01  5.4505085040902E-01 -4.5220081629695E-01
    41  4.0000000000000E-01  5.6786362496068E-01 -4.6797332222412E-01
    42  4.1000000000000E-01  5.9073497735673E-01 -4.8340498551338E-01
    43  4.2000000000000E-01  6.1363263381042E-01 -4.9844947576616E-01
    44  4.3000000000000E-01  6.3652431138148E-01 -5.1306066207627E-01
    45  4.4000000000000E-01  6.5937776852076E-01 -5.2719272964645E-01
    46  4.5000000000000E-01  6.8216085573647E-01 -5.4080029833162E-01
    47  4.6000000000000E-01  7.0484156628068E-01 -5.5383854269551E-01
    48  4.7000000000000E-01  7.2738808675198E-01 -5.6626331314482E-01
    49  4.8000000000000E-01  7.4976884750860E-01 -5.7803125768516E-01
    50  4.9000000000000E-01  7.7195257278481E-01 -5.8909994382557E-01
    51  5.0000000000000E-01  7.9390833040193E-01 -5.9942798014338E-01
    52  5.1000000000000E-01  8.1560558096503E-01 -6.0897513700966E-01
    53  5.2000000000000E-01  8.3701422643549E-01 -6.1770246596601E-01
    54  5.3000000000000E-01  8.5810465797009E-01 -6.2557241723833E-01
    55  5.4000000000000E-01  8.7884780291758E-01 -6.3254895486965E-01
    56  5.5000000000000E-01  8.9921517086460E-01 -6.3859766895555E-01
    57  5.6000000000000E-01  9.1917889862422E-01 -6.4368588446889E-01
    58  5.7000000000000E-01  9.3871179406215E-01 -6.4778276616816E-01
    59  5.8000000000000E-01  9.5778737865796E-01 -6.5085941909397E-01
    60  5.9000000000000E-01  9.7637992870111E-01 -6.5288898417206E-01
    61  6.0000000000000E-01  9.9446451502491E-01 -6.5384672845814E-01
    62  6.1000000000000E-01  1.0120170411850E+00 -6.5371012957972E-01
    63  6.2000000000000E-01  1.0290142799924E+00 -6.5245895395356E-01
    64  6.3000000000000E-01  1.0454339083166E+00 -6.5007532838287E-01
    65  6.4000000000000E-01  1.0612545400770E+00 -6.4654380466749E-01
    66  6.5000000000000E-01  1.0764557573478E+00 -6.4185141689131E-01
    67  6.6000000000000E-01  1.0910181395063E+00 -6.3598773108512E-01
    68  6.7000000000000E-01  1.1049232903590E+00 -6.2894488699853E-01
    69  6.8000000000000E-01  1.1181538631875E+00 -6.2071763175295E-01
    70  6.9000000000000E-01  1.1306935836613E+00 -6.1130334518655E-01
    71  7.0000000000000E-01  1.1425272705722E+00 -6.0070205674357E-01
    72  7.1000000000000E-01  1.1536408543486E+00 -5.8891645380213E-01
    73  7.2000000000000E-01  1.1640213933199E+00 -5.7595188137805E-01
    74  7.3000000000000E-01  1.1736570877017E+00 -5.6181633318553E-01
    75  7.4000000000000E-01  1.1825372912857E+00 -5.4652043407989E-01
    76  7.5000000000000E-01  1.1906525208201E+00 -5.3007741395142E-01
    77  7.6000000000000E-01  1.1979944630769E+00 -5.1250307318309E-01
    78  7.7000000000000E-01  1.2045559796068E+00 -4.9381573982834E-01
    79  7.8000000000000E-01  1.2103311091919E+00 -4.7403621870730E-01
    80  7.9000000000000E-01  1.2153150680114E+00 -4.5318773266109E-01
    81  8.0000000000000E-01  1.2195042475427E+00 -4.3129585624370E-01
    82  8.1000000000000E-01  1.2228962102270E+00 -4.0838844216900E-01
    83  8.2000000000000E-01  1.2254896829360E+00 -3.8449554086644E-01
    84  8.3000000000000E-01  1.2272845482798E+00 -3.5964931353321E-01