Pt    ONCVPSP-4.0.1  r_core=   2.29804   2.19066   2.35369   2.33966
     78.0000     18.0000      220801    zatom,zion,pspd
     8      11   3     4   500     0    pspcod,pspxc,lmax,lloc,mmax,r2well
  4.99000000  5.00000000  0.00000000    rchrg fchrg qchrg
     2     2     2     2     0    nproj
     1     1           extension_switch
   0                         1.8002380641269E+00 -1.1590025977996E+00
     1  0.0000000000000E+00  1.0134243444426E-10 -1.9422352615095E-10
     2  1.0000000000000E-02  2.8210668921723E-02  6.4468837928683E-02
     3  2.0000000000000E-02  5.6439283959954E-02  1.2872048436522E-01
     4  3.0000000000000E-02  8.4703403076180E-02  1.9253877189232E-01
     5  4.0000000000000E-02  1.1301982607837E-01  2.5570954875405E-01
     6  5.0000000000000E-02  1.4140424687774E-01  3.1802162994264E-01
     7  6.0000000000000E-02  1.6987092880485E-01  3.7926770551452E-01
     8  7.0000000000000E-02  1.9843240363131E-01  4.3924520414993E-01
     9  8.0000000000000E-02  2.2709919484184E-01  4.9775711016484E-01
    10  9.0000000000000E-02  2.5587956560013E-01  5.5461273238473E-01
    11  1.0000000000000E-01  2.8477929175063E-01  6.0962842349607E-01
    12  1.1000000000000E-01  3.1380146009816E-01  6.6262824870196E-01
    13  1.2000000000000E-01  3.4294629210721E-01  7.1344460272168E-01
    14  1.3000000000000E-01  3.7221099306459E-01  7.6191877438913E-01
    15  1.4000000000000E-01  4.0158962665250E-01  8.0790145832073E-01
    16  1.5000000000000E-01  4.3107301478374E-01  8.5125321333807E-01
    17  1.6000000000000E-01  4.6064866245828E-01  8.9184486754368E-01
    18  1.7000000000000E-01  4.9030070731007E-01  9.2955787015766E-01
    19  1.8000000000000E-01  5.2000989342530E-01  9.6428459042881E-01
    20  1.9000000000000E-01  5.4975356892860E-01  9.9592856413376E-01
    21  2.0000000000000E-01  5.7950570675261E-01  1.0244046883715E+00
    22  2.1000000000000E-01  6.0923694792794E-01  1.0496393655475E+00
    23  2.2000000000000E-01  6.3891466665671E-01  1.0715705976194E+00
    24  2.3000000000000E-01  6.6850305636221E-01  1.0901480318459E+00
    25  2.4000000000000E-01  6.9796323584107E-01  1.1053329594407E+00
    26  2.5000000000000E-01  7.2725337458209E-01  1.1170982686806E+00
    27  2.6000000000000E-01  7.5632883625855E-01  1.1254283541566E+00
    28  2.7000000000000E-01  7.8514233934736E-01  1.1303189839825E+00
    29  2.8000000000000E-01  8.1364413378012E-01  1.1317771268902E+00
    30  2.9000000000000E-01  8.4178219248764E-01  1.1298207412432E+00
    31  3.0000000000000E-01  8.6950241666051E-01  1.1244785280871E+00
    32  3.1000000000000E-01  8.9674885351447E-01  1.1157896504371E+00
    33  3.2000000000000E-01  9.2346392532062E-01  1.1038034210612E+00
    34  3.3000000000000E-01  9.4958866843668E-01  1.0885789610718E+00
    35  3.4000000000000E-01  9.7506298105668E-01  1.0701848316763E+00
    36  3.5000000000000E-01  9.9982587838290E-01  1.0486986414604E+00
    37  3.6000000000000E-01  1.0238157539153E+00  1.0242066315939E+00
    38  3.7000000000000E-01  1.0469706455502E+00  9.9680324134704E-01
    39  3.8000000000000E-01  1.0692285051805E+00  9.6659065629579E-01
    40  3.9000000000000E-01  1.0905274704981E+00  9.3367834157194E-01
    41  4.0000000000000E-01  1.1108061377078E+00  8.9818256248039E-01
    42  4.1000000000000E-01  1.1300038338795E+00  8.6022589476314E-01
    43  4.2000000000000E-01  1.1480608876860E+00  8.1993672673611E-01
    44  4.3000000000000E-01  1.1649188972978E+00  7.7744875546285E-01
    45  4.4000000000000E-01  1.1805209942364E+00  7.3290047905909E-01
    46  4.5000000000000E-01  1.1948121020212E+00  6.8643468714365E-01
    47  4.6000000000000E-01  1.2077391884825E+00  6.3819795136687E-01
    48  4.7000000000000E-01  1.2192515106543E+00  5.8834011785637E-01
    49  4.8000000000000E-01  1.2293008512066E+00  5.3701380332402E-01
    50  4.9000000000000E-01  1.2378417454250E+00  4.8437389647737E-01
    51  5.0000000000000E-01  1.2448316977957E+00  4.3057706627408E-01
    52  5.1000000000000E-01  1.2502313873126E+00  3.7578127845106E-01
    53  5.2000000000000E-01  1.2540048606767E+00  3.2014532165061E-01
    54  5.3000000000000E-01  1.2561197126202E+00  2.6382834435503E-01
    55  5.4000000000000E-01  1.2565472526502E+00  2.0698940373024E-01
    56  5.5000000000000E-01  1.2552626575700E+00  1.4978702736813E-01
    57  5.6000000000000E-01  1.2522451092036E+00  9.2378788806975E-02
    58  5.7000000000000E-01  1.2474779168152E+00  3.4920897601179E-02
    59  5.8000000000000E-01  1.2409486237848E+00 -2.2432195394651E-02
    60  5.9000000000000E-01  1.2326490981718E+00 -7.9528176965703E-02
    61  6.0000000000000E-01  1.2225756068662E+00 -1.3621723423911E-01
    62  6.1000000000000E-01  1.2107288731002E+00 -1.9235240078267E-01
    63  6.2000000000000E-01  1.1971141171630E+00 -2.4778988582553E-01
    64  6.3000000000000E-01  1.1817410802307E+00 -3.0238938641378E-01
    65  6.4000000000000E-01  1.1646240312958E+00 -3.5601438239472E-01
    66  6.5000000000000E-01  1.1457817572477E+00 -4.0853241420016E-01
    67  6.6000000000000E-01  1.1252375362265E+00 -4.5981534346934E-01
    68  6.7000000000000E-01  1.1030190944357E+00 -5.0973959661641E-01
    69  6.8000000000000E-01  1.0791585466697E+00 -5.5818639150579E-01
    70  6.9000000000000E-01  1.0536923208716E+00 -6.0504194745097E-01
    71  7.0000000000000E-01  1.0266610671006E+00 -6.5019767879808E-01
    72  7.1000000000000E-01  9.9810955134763E-01 -6.9355037239529E-01
    73  7.2000000000000E-01  9.6808653469434E-01 -7.3500234928290E-01
    74  7.3000000000000E-01  9.3664463836575E-01 -7.7446161096612E-01
    75  7.4000000000000E-01  9.0384019527731E-01 -8.1184197065440E-01
    76  7.5000000000000E-01  8.6973308872673E-01 -8.4706316986717E-01
    77  7.6000000000000E-01  8.3438657892564E-01 -8.8005098081611E-01
    78  7.7000000000000E-01  7.9786711810813E-01 -9.1073729497938E-01
    79  7.8000000000000E-01  7.6024415499191E-01 -9.3906019828400E-01
    80  7.9000000000000E-01  7.2158992940242E-01 -9.6496403330780E-01
    81  8.0000000000000E-01  6.8197925790150E-01 -9.8839944890472E-01
    82  8.1000000000000E-01  6.4148931128950E-01 -1.0093234376446E+00
    83  8.2000000000000E-01  6.0019938487320E-01 -1.0276993614432E+00
    84  8.3000000000000E-01  5.5819066241121E-01 -1.0434969657401E+00
    85  8.4000000000000E-01  5.1554597466430E-01 -1.0566923825603E+00
    86  8.5000000000000E-01  4.7234955348942E-01 -1.0672681227727E+00
    87  8.6000000000000E-01  4.2868678242376E-01 -1.0752130578336E+00
    88  8.7000000000000E-01  3.8464394470861E-01 -1.0805223912769E+00
    89  8.8000000000000E-01  3.4030796970262E-01 -1.0831976201868E+00
    90  8.9000000000000E-01  2.9576617862906E-01 -1.0832464868583E+00
    91  9.0000000000000E-01  2.5110603059438E-01 -1.0806829208286E+00
    92  9.1000000000000E-01  2.0641486980230E-01 -1.0755269714296E+00
    93  9.2000000000000E-01  1.6177967487286E-01 -1.0678047309888E+00
    94  9.3000000000000E-01  1.1728681115610E-01 -1.0575482487802E+00
    95  9.4000000000000E-01  7.3021786907322E-02 -1.0447954358017E+00
    96  9.5000000000000E-01  2.9069014165237E-02 -1.0295899604343E+00
    97  9.6000000000000E-01 -1.4488424855441E-02 -1.0119811350173E+00
    98  9.7000000000000E-01 -5.7569005077078E-02 -9.9202379335641E-01
    99  9.8000000000000E-01 -1.0009297883333E-01 -9.6977815916501E-01
   100  9.9000000000000E-01 -1.4198258839749E-01 -9.4530970542624E-01
   101  1.0000000000000E+00 -1.8316227009793E-01 -9.1868900465300E-01
   102  1.0100000000000E+00 -2.2355884939624E-01 -8.8999157001466E-01
   103  1.0200000000000E+00 -2.6310172634748E-01 -8.5929768729526E-01
   104  1.0300000000000E+00 -3.0172305090878E-01 -8.2669223764486E-01
   105  1.0400000000000E+00 -3.3935788760954E-01 -7.9226451108779E-01
   106  1.0500000000000E+00 -3.7594436914605E-01 -7.5610801075402E-01
   107  1.0600000000000E+00 -4.1142383851331E-01 -7.1832024780709E-01
   108  1.0700000000000E+00 -4.4574097933796E-01 -6.7900252705079E-01
   109  1.0800000000000E+00 -4.7884393412772E-01 -6.3825972320863E-01
   110  1.0900000000000E+00 -5.1068441020527E-01 -5.9620004788376E-01
   111  1.1000000000000E+00 -5.4121777314629E-01 -5.5293480722378E-01
   112  1.1100000000000E+00 -5.7040312759399E-01 -5.0857815033221E-01
   113  1.1200000000000E+00 -5.9820338537410E-01 -4.6324680848938E-01
   114  1.1300000000000E+00 -6.2458532088584E-01 -4.1705982526595E-01
   115  1.1400000000000E+00 -6.4951961379516E-01 -3.7013827763563E-01
   116  1.1500000000000E+00 -6.7298087910589E-01 -3.2260498821713E-01
   117  1.1600000000000E+00 -6.9494768473351E-01 -2.7458422879970E-01
   118  1.1700000000000E+00 -7.1540255675311E-01 -2.2620141533162E-01
   119  1.1800000000000E+00 -7.3433197253893E-01 -1.7758279457578E-01
   120  1.1900000000000E+00 -7.5172634205676E-01 -1.2885512266128E-01
   121  1.2000000000000E+00 -7.6757997761268E-01 -8.0145335784559E-02
   122  1.2100000000000E+00 -7.8189105240168E-01 -3.1580213336570E-02
   123  1.2200000000000E+00 -7.9466154823722E-01  1.6713966244011E-02
   124  1.2300000000000E+00 -8.0589719287890E-01  6.4611776571240E-02
   125  1.2400000000000E+00 -8.1560738740803E-01  1.1198900102509E-01
   126  1.2500000000000E+00 -8.2380512413180E-01  1.5872299671884E-01
   127  1.2600000000000E+00 -8.3050689552441E-01  2.0469306434590E-01
   128  1.2700000000000E+00 -8.3573259473922E-01  2.4978082351748E-01
   129  1.2800000000000E+00 -8.3950540824782E-01  2.9387059319051E-01
   130  1.2900000000000E+00 -8.4185170118235E-01  3.3684977677693E-01
   131  1.3000000000000E+00 -8.4280089597358E-01  3.7860925151764E-01
   132  1.3100000000000E+00 -8.4238534489156E-01  4.1904376170204E-01
   133  1.3200000000000E+00 -8.4064019710674E-01  4.5805231531131E-01
   134  1.3300000000000E+00 -8.3760326089759E-01  4.9553858366699E-01
   135  1.3400000000000E+00 -8.3331486163616E-01  5.3141130366940E-01
   136  1.3500000000000E+00 -8.2781769618549E-01  5.6558468221815E-01
   137  1.3600000000000E+00 -8.2115668434303E-01  5.9797880241783E-01
   138  1.3700000000000E+00 -8.1337881796073E-01  6.2852003118267E-01
   139  1.3800000000000E+00 -8.0453300836744E-01  6.5714142787110E-01
   140  1.3900000000000E+00 -7.9466993271102E-01  6.8378315359738E-01
   141  1.4000000000000E+00 -7.8384187982705E-01  7.0839288088745E-01
   142  1.4100000000000E+00 -7.7210259622835E-01  7.3092620336899E-01
   143  1.4200000000000E+00 -7.5950713279411E-01  7.5134704520783E-01
   144  1.4300000000000E+00 -7.4611169272068E-01  7.6962807002950E-01
   145  1.4400000000000E+00 -7.3197348127654E-01  7.8575108909160E-01
   146  1.4500000000000E+00 -7.1715055788310E-01  7.9970746849946E-01
   147  1.4600000000000E+00 -7.0170169102030E-01  8.1149853528781E-01
   148  1.4700000000000E+00 -6.8568621643133E-01  8.2113598221986E-01
   149  1.4800000000000E+00 -6.6916389907592E-01  8.2864227118579E-01
   150  1.4900000000000E+00 -6.5219479925339E-01  8.3405103511117E-01
   151  1.5000000000000E+00 -6.3483914329009E-01  8.3740747831798E-01
   152  1.5100000000000E+00 -6.1715719915539E-01  8.3876877530697E-01
   153  1.5200000000000E+00 -5.9920915742873E-01  8.3820446839077E-01
   154  1.5300000000000E+00 -5.8105501732107E-01  8.3579686123560E-01
   155  1.5400000000000E+00 -5.6275448193695E-01  8.3164142735343E-01
   156  1.5500000000000E+00 -5.4436664410818E-01  8.2584615216019E-01
   157  1.5600000000000E+00 -5.2594820156236E-01  8.1852332884879E-01
   158  1.5700000000000E+00 -5.0755202419931E-01  8.0978228298128E-01
   159  1.5800000000000E+00 -4.8922719194356E-01  7.9972897760539E-01
   160  1.5900000000000E+00 -4.7101911755845E-01  7.8846602276347E-01
   161  1.6000000000000E+00 -4.5296967440361E-01  7.7609270337120E-01
   162  1.6100000000000E+00 -4.3511732454326E-01  7.6270500624069E-01
   163  1.6200000000000E+00 -4.1749724645072E-01  7.4839564392491E-01
   164  1.6300000000000E+00 -4.0014146229860E-01  7.3325407676233E-01
   165  1.6400000000000E+00 -3.8307896465292E-01  7.1736653365697E-01
   166  1.6500000000000E+00 -3.6633584236265E-01  7.0081603193735E-01
   167  1.6600000000000E+00 -3.4993540546067E-01  6.8368239671391E-01
   168  1.6700000000000E+00 -3.3389830889819E-01  6.6604228012945E-01
   169  1.6800000000000E+00 -3.1824267494748E-01  6.4796918091205E-01
   170  1.6900000000000E+00 -3.0298421410685E-01  6.2953346456606E-01
   171  1.7000000000000E+00 -2.8813634435152E-01  6.1080238452289E-01
   172  1.7100000000000E+00 -2.7371030860112E-01  5.9184010466664E-01
   173  1.7200000000000E+00 -2.5971529025514E-01  5.7270772345671E-01
   174  1.7300000000000E+00 -2.4615852667774E-01  5.5346329997514E-01
   175  1.7400000000000E+00 -2.3304542051387E-01  5.3416188215255E-01
   176  1.7500000000000E+00 -2.2037964873073E-01  5.1485553742296E-01
   177  1.7600000000000E+00 -2.0816326928606E-01  4.9559338602277E-01
   178  1.7700000000000E+00 -1.9639682532834E-01  4.7642163708723E-01
   179  1.7800000000000E+00 -1.8507944685636E-01  4.5738362776478E-01
   180  1.7900000000000E+00 -1.7420894976258E-01  4.3851986546327E-01
   181  1.8000000000000E+00 -1.6378193219203E-01  4.1986807330603E-01
   182  1.8100000000000E+00 -1.5379386816833E-01  4.0146323892843E-01
   183  1.8200000000000E+00 -1.4423919843913E-01  3.8333766666843E-01
   184  1.8300000000000E+00 -1.3511141849530E-01  3.6552103313182E-01
   185  1.8400000000000E+00 -1.2640316374213E-01  3.4804044620583E-01
   186  1.8500000000000E+00 -1.1810629179090E-01  3.3092050743949E-01
   187  1.8600000000000E+00 -1.1021196184713E-01  3.1418337767614E-01
   188  1.8700000000000E+00 -1.0271071129065E-01  2.9784884674531E-01
   189  1.8800000000000E+00 -9.5592529056306E-02  2.8193440385449E-01
   190  1.8900000000000E+00 -8.8846926549348E-02  2.6645531469268E-01
   191  1.9000000000000E+00 -8.2463005468180E-02  2.5142469974749E-01
   192  1.9100000000000E+00 -7.6429522479613E-02  2.3685361308090E-01
   193  1.9200000000000E+00 -7.0734951521977E-02  2.2275112771871E-01
   194  1.9300000000000E+00 -6.5367542970253E-02  2.0912442078557E-01
   195  1.9400000000000E+00 -6.0315380104281E-02  1.9597886161356E-01
   196  1.9500000000000E+00 -5.5566432806755E-02  1.8331810167119E-01
   197  1.9600000000000E+00 -5.1108608541645E-02  1.7114416614635E-01
   198  1.9700000000000E+00 -4.6929800661823E-02  1.5945754696553E-01
   199  1.9800000000000E+00 -4.3017934091626E-02  1.4825729695754E-01
   200  1.9900000000000E+00 -3.9361008432882E-02  1.3754112485564E-01
   201  2.0000000000000E+00 -3.5947138551547E-02  1.2730549087781E-01
   202  2.0100000000000E+00 -3.2764592703342E-02  1.1754570260870E-01
   203  2.0200000000000E+00 -2.9801828251494E-02  1.0825601082609E-01
   204  2.0300000000000E+00 -2.7047525040720E-02  9.9429705000378E-02
   205  2.0400000000000E+00 -2.4490616490765E-02  9.1059208172773E-02
   206  2.0500000000000E+00 -2.2120318471551E-02  8.3136170890146E-02
   207  2.0600000000000E+00 -1.9926156023144E-02  7.5651563877154E-02
   208  2.0700000000000E+00 -1.7897987989409E-02  6.8595769181708E-02
   209  2.0800000000000E+00 -1.6026029627023E-02  6.1958669452070E-02
   210  2.0900000000000E+00 -1.4300873259362E-02  5.5729735094630E-02
   211  2.1000000000000E+00 -1.2713507039477E-02  4.9898109010044E-02
   212  2.1100000000000E+00 -1.1255331886166E-02  4.4452688615923E-02
   213  2.1200000000000E+00 -9.9181766599312E-03  3.9382204911688E-02
   214  2.1300000000000E+00 -8.6943116437437E-03  3.4675298340539E-02
   215  2.1400000000000E+00 -7.5764607494581E-03  3.0320592211456E-02
   216  2.1500000000000E+00 -6.5578106499326E-03  2.6306758109294E-02
   217  2.1600000000000E+00 -5.6320149915517E-03  2.2622567407824E-02
   218  2.1700000000000E+00 -4.7932286773338E-03  1.9257031600565E-02
   219  2.1800000000000E+00 -4.0360657909662E-03  1.6199311901719E-02
   220  2.1900000000000E+00 -3.3550976251353E-03  1.3437333211039E-02
   221  2.2000000000000E+00 -2.7447502006268E-03  1.0957554573507E-02
   222  2.2100000000000E+00 -2.2015072258187E-03  8.7513269723785E-03
   223  2.2200000000000E+00 -1.7226122375385E-03  6.8111412730503E-03
   224  2.2300000000000E+00 -1.3055865293339E-03  5.1292650597204E-03
   225  2.2400000000000E+00 -9.4840205830989E-04  3.6982904188510E-03
   226  2.2500000000000E+00 -6.4944831202717E-04  2.5110725687854E-03
   227  2.2600000000000E+00 -4.0760501994642E-04  1.5610240069674E-03
   228  2.2700000000000E+00 -2.2191131920151E-04  8.4095747360980E-04
   229  2.2800000000000E+00 -9.1466018068558E-05  3.4272167166038E-04
   230  2.2900000000000E+00 -2.0563463650291E-05  7.6019727517289E-05
   231  2.3000000000000E+00  1.6800458562311E-06 -6.1743429418254E-06
   232  2.3100000000000E+00  7.4331508175223E-07 -2.7074447193013E-06
   233  2.3200 -0.  0.
   234  2.3300  0. -0.
   235  2.3400  0. -0.
   236  2.3500  0. -0.
   237  2.3600  0.  0.
   238  2.3700  0.  0.
   239  2.3800  0.  0.
   240  2.3900  0.  0.
   241  2.4000  0.  0.
   242  2.4100  0.  0.
   243  2.4200  0.  0.
   244  2.4300  0.  0.
   245  2.4400  0.  0.
   246  2.4500  0.  0.
   247  2.4600  0.  0.
   248  2.4700  0.  0.
   249  2.4800  0.  0.
   250  2.4900  0.  0.
   251  2.5000  0.  0.
   252  2.5100  0.  0.
   253  2.5200  0.  0.
   254  2.5300  0.  0.
   255  2.5400  0.  0.
   256  2.5500  0.  0.
   257  2.5600  0.  0.
   258  2.5700  0.  0.
   259  2.5800  0.  0.
   260  2.5900  0.  0.
   261  2.6000  0.  0.
   262  2.6100  0.  0.
   263  2.6200  0.  0.
   264  2.6300  0.  0.
   265  2.6400  0.  0.
   266  2.6500  0.  0.
   267  2.6600  0.  0.
   268  2.6700  0.  0.
   269  2.6800  0.  0.
   270  2.6900  0.  0.
   271  2.7000  0.  0.
   272  2.7100  0.  0.
   273  2.7200  0.  0.
   274  2.7300  0.  0.
   275  2.7400  0.  0.
   276  2.7500  0.  0.
   277  2.7600  0.  0.
   278  2.7700  0.  0.
   279  2.7800  0.  0.
   280  2.7900  0.  0.
   281  2.8000  0.  0.
   282  2.8100  0.  0.
   283  2.8200  0.  0.
   284  2.8300  0.  0.
   285  2.8400  0.  0.
   286  2.8500  0.  0.
   287  2.8600  0.  0.
   288  2.8700  0.  0.
   289  2.8800  0.  0.
   290  2.8900  0.  0.
   291  2.9000  0.  0.
   292  2.9100  0.  0.
   293  2.9200  0.  0.
   294  2.9300  0.  0.
   295  2.9400  0.  0.
   296  2.9500  0.  0.
   297  2.9600  0.  0.
   298  2.9700  0.  0.
   299  2.9800  0.  0.
   300  2.9900  0.  0.
   301  3.0000  0.  0.
   302  3.0100  0.  0.
   303  3.0200  0.  0.
   304  3.0300  0.  0.
   305  3.0400  0.  0.
   306  3.0500  0.  0.
   307  3.0600  0.  0.
   308  3.0700  0.  0.
   309  3.0800  0.  0.
   310  3.0900  0.  0.
   311  3.1000  0.  0.
   312  3.1100  0.  0.
   313  3.1200  0.  0.
   314  3.1300  0.  0.
   315  3.1400  0.  0.
   316  3.1500  0.  0.
   317  3.1600  0.  0.
   318  3.1700  0.  0.
   319  3.1800  0.  0.
   320  3.1900  0.  0.
   321  3.2000  0.  0.
   322  3.2100  0.  0.
   323  3.2200  0.  0.
   324  3.2300  0.  0.
   325  3.2400  0.  0.
   326  3.2500  0.  0.
   327  3.2600  0.  0.
   328  3.2700  0.  0.
   329  3.2800  0.  0.
   330  3.2900  0.  0.
   331  3.3000  0.  0.
   332  3.3100  0.  0.
   333  3.3200  0.  0.
   334  3.3300  0.  0.
   335  3.3400  0.  0.
   336  3.3500  0.  0.
   337  3.3600  0.  0.
   338  3.3700  0.  0.
   339  3.3800  0.  0.
   340  3.3900  0.  0.
   341  3.4000  0.  0.
   342  3.4100  0.  0.
   343  3.4200  0.  0.
   344  3.4300  0.  0.
   345  3.4400  0.  0.
   346  3.4500  0.  0.
   347  3.4600  0.  0.
   348  3.4700  0.  0.
   349  3.4800  0.  0.
   350  3.4900  0.  0.
   351  3.5000  0.  0.
   352  3.5100  0.  0.
   353  3.5200  0.  0.
   354  3.5300  0.  0.
   355  3.5400  0.  0.
   356  3.5500  0.  0.
   357  3.5600  0.  0.
   358  3.5700  0.  0.
   359  3.5800  0.  0.
   360  3.5900  0.  0.
   361  3.6000  0.  0.
   362  3.6100  0.  0.
   363  3.6200  0.  0.
   364  3.6300  0.  0.
   365  3.6400  0.  0.
   366  3.6500  0.  0.
   367  3.6600  0.  0.
   368  3.6700  0.  0.
   369  3.6800  0.  0.
   370  3.6900  0.  0.
   371  3.7000  0.  0.
   372  3.7100  0.  0.
   373  3.7200  0.  0.
   374  3.7300  0.  0.
   375  3.7400  0.  0.
   376  3.7500  0.  0.
   377  3.7600  0.  0.
   378  3.7700  0.  0.
   379  3.7800  0.  0.
   380  3.7900  0.  0.
   381  3.8000  0.  0.
   382  3.8100  0.  0.
   383  3.8200  0.  0.
   384  3.8300  0.  0.
   385  3.8400  0.  0.
   386  3.8500  0.  0.
   387  3.8600  0.  0.
   388  3.8700  0.  0.
   389  3.8800  0.  0.
   390  3.8900  0.  0.
   391  3.9000  0.  0.
   392  3.9100  0.  0.
   393  3.9200  0.  0.
   394  3.9300  0.  0.
   395  3.9400  0.  0.
   396  3.9500  0.  0.
   397  3.9600  0.  0.
   398  3.9700  0.  0.
   399  3.9800  0.  0.
   400  3.9900  0.  0.
   401  4.0000  0.  0.
   402  4.0100  0.  0.
   403  4.0200  0.  0.
   404  4.0300  0.  0.
   405  4.0400  0.  0.
   406  4.0500  0.  0.
   407  4.0600  0.  0.
   408  4.0700  0.  0.
   409  4.0800  0.  0.
   410  4.0900  0.  0.
   411  4.1000  0.  0.
   412  4.1100  0.  0.
   413  4.1200  0.  0.
   414  4.1300  0.  0.
   415  4.1400  0.  0.
   416  4.1500  0.  0.
   417  4.1600  0.  0.
   418  4.1700  0.  0.
   419  4.1800  0.  0.
   420  4.1900  0.  0.
   421  4.2000  0.  0.
   422  4.2100  0.  0.
   423  4.2200  0.  0.
   424  4.2300  0.  0.
   425  4.2400  0.  0.
   426  4.2500  0.  0.
   427  4.2600  0.  0.
   428  4.2700  0.  0.
   429  4.2800  0.  0.
   430  4.2900  0.  0.
   431  4.3000  0.  0.
   432  4.3100  0.  0.
   433  4.3200  0.  0.
   434  4.3300  0.  0.
   435  4.3400  0.  0.
   436  4.3500  0.  0.
   437  4.3600  0.  0.
   438  4.3700  0.  0.
   439  4.3800  0.  0.
   440  4.3900  0.  0.
   441  4.4000  0.  0.
   442  4.4100  0.  0.
   443  4.4200  0.  0.
   444  4.4300  0.  0.
   445  4.4400  0.  0.
   446  4.4500  0.  0.
   447  4.4600  0.  0.
   448  4.4700  0.  0.
   449  4.4800  0.  0.
   450  4.4900  0.  0.
   451  4.5000  0.  0.
   452  4.5100  0.  0.
   453  4.5200  0.  0.
   454  4.5300  0.  0.
   455  4.5400  0.  0.
   456  4.5500  0.  0.
   457  4.5600  0.  0.
   458  4.5700  0.  0.
   459  4.5800  0.  0.
   460  4.5900  0.  0.
   461  4.6000  0.  0.
   462  4.6100  0.  0.
   463  4.6200  0.  0.
   464  4.6300  0.  0.
   465  4.6400  0.  0.
   466  4.6500  0.  0.
   467  4.6600  0.  0.
   468  4.6700  0.  0.
   469  4.6800  0.  0.
   470  4.6900  0.  0.
   471  4.7000  0.  0.
   472  4.7100  0.  0.
   473  4.7200  0.  0.
   474  4.7300  0.  0.
   475  4.7400  0.  0.
   476  4.7500  0.  0.
   477  4.7600  0.  0.
   478  4.7700  0.  0.
   479  4.7800  0.  0.
   480  4.7900  0.  0.
   481  4.8000  0.  0.
   482  4.8100  0.  0.
   483  4.8200  0.  0.
   484  4.8300  0.  0.
   485  4.8400  0.  0.
   486  4.8500  0.  0.
   487  4.8600  0.  0.
   488  4.8700  0.  0.
   489  4.8800  0.  0.
   490  4.8900  0.  0.
   491  4.9000  0.  0.
   492  4.9100  0.  0.
   493  4.9200  0.  0.
   494  4.9300  0.  0.
   495  4.9400  0.  0.
   496  4.9500  0.  0.
   497  4.9600  0.  0.
   498  4.9700  0.  0.
   499  4.9800  0.  0.
   500  4.9900  0.  0.
   1                         1.6080188467865E+00 -2.8573076223555E-01
     1  0.0000000000000E+00 -2.1586642195981E-10  1.8098110510234E-10
     2  1.0000000000000E-02  7.5318492474270E-04  6.9563199019904E-04
     3  2.0000000000000E-02  3.0122122643205E-03  2.7787413435620E-03
     4  3.0000000000000E-02  6.7754829437928E-03  6.2379995114074E-03
     5  4.0000000000000E-02  1.2040276865614E-02  1.1054628573557E-02
     6  5.0000000000000E-02  1.8802672903566E-02  1.7202552262712E-02
     7  6.0000000000000E-02  2.7057440602075E-02  2.4648602321657E-02
     8  7.0000000000000E-02  3.6797906151276E-02  3.3352776861575E-02
     9  8.0000000000000E-02  4.8015795424040E-02  4.3268547208748E-02
    10  9.0000000000000E-02  6.0701057050221E-02  5.4343209564405E-02
    11  1.0000000000000E-01  7.4841668664570E-02  6.6518277660809E-02
    12  1.1000000000000E-01  9.0423429596454E-02  7.9729912474147E-02
    13  1.2000000000000E-01  1.0742974337096E-01  9.3909384953984E-02
    14  1.3000000000000E-01  1.2584139346145E-01  1.0898356764920E-01
    15  1.4000000000000E-01  1.4563631577243E-01  1.2487545105203E-01
    16  1.5000000000000E-01  1.6678937133892E-01  1.4150468044546E-01
    17  1.6000000000000E-01  1.8927212270421E-01  1.5878810902468E-01
    18  1.7000000000000E-01  2.1305261738236E-01  1.7664036307055E-01
    19  1.8000000000000E-01  2.3809518172609E-01  1.9497441498203E-01
    20  1.9000000000000E-01  2.6436022840517E-01  2.1370216002522E-01
    21  2.0000000000000E-01  2.9180408055693E-01  2.3273499272811E-01
    22  2.1000000000000E-01  3.2037881550029E-01  2.5198437894288E-01
    23  2.2000000000000E-01  3.5003213070909E-01  2.7136241970998E-01
    24  2.3000000000000E-01  3.8070723452273E-01  2.9078240319045E-01
    25  2.4000000000000E-01  4.1234276383250E-01  3.1015934108394E-01
    26  2.5000000000000E-01  4.4487273072478E-01  3.2941048611894E-01
    27  2.6000000000000E-01  4.7822649978846E-01  3.4845582738730E-01
    28  2.7000000000000E-01  5.1232879750746E-01  3.6721856049746E-01
    29  2.8000000000000E-01  5.4709975486167E-01  3.8562552973751E-01
    30  2.9000000000000E-01  5.8245498395457E-01  4.0360763966941E-01
    31  3.0000000000000E-01  6.1830568917620E-01  4.2110023381900E-01
    32  3.1000000000000E-01  6.5455881309816E-01  4.3804343837991E-01
    33  3.2000000000000E-01  6.9111721698661E-01  4.5438246911322E-01
    34  3.3000000000000E-01  7.2787989551228E-01  4.7006789989611E-01
    35  3.4000000000000E-01  7.6474222493610E-01  4.8505589165091E-01
    36  3.5000000000000E-01  8.0159624375768E-01  4.9930838066888E-01
    37  3.6000000000000E-01  8.3833096453474E-01  5.1279322562943E-01
    38  3.7000000000000E-01  8.7483271531611E-01  5.2548431290318E-01
    39  3.8000000000000E-01  9.1098550888211E-01  5.3736162001486E-01
    40  3.9000000000000E-01  9.4667143775553E-01  5.4841123742821E-01
    41  4.0000000000000E-01  9.8177109273620E-01  5.5862534909639E-01
    42  4.1000000000000E-01  1.0161640025236E+00  5.6800217249884E-01
    43  4.2000000000000E-01  1.0497290918259E+00  5.7654585915447E-01
    44  4.3000000000000E-01  1.0823451552139E+00  5.8426635686189E-01
    45  4.4000000000000E-01  1.1138913438597E+00  5.9117923516744E-01
    46  4.5000000000000E-01  1.1442476622112E+00  5.9730547579933E-01
    47  4.6000000000000E-01  1.1732954715876E+00  6.0267123003038E-01
    48  4.7000000000000E-01  1.2009179976416E+00  6.0730754514034E-01
    49  4.8000000000000E-01  1.2270008386197E+00  6.1125006234043E-01
    50  4.9000000000000E-01  1.2514324713664E+00  6.1453868869676E-01
    51  5.0000000000000E-01  1.2741047520484E+00  6.1721724574307E-01
    52  5.1000000000000E-01  1.2949134086405E+00  6.1933309760731E-01
    53  5.2000000000000E-01  1.3137585222901E+00  6.2093676158882E-01
    54  5.3000000000000E-01  1.3305449947840E+00  6.2208150421244E-01
    55  5.4000000000000E-01  1.3451829994588E+00  6.2282292585300E-01
    56  5.5000000000000E-01  1.3575884130388E+00  6.2321853706653E-01
    57  5.6000000000000E-01  1.3676832260364E+00  6.2332732978379E-01
    58  5.7000000000000E-01  1.3753959295204E+00  6.2320934651681E-01
    59  5.8000000000000E-01  1.3806618762371E+00  6.2292525069926E-01
    60  5.9000000000000E-01  1.3834236142598E+00  6.2253590122884E-01
    61  6.0000000000000E-01  1.3836311915368E+00  6.2210193420221E-01
    62  6.1000000000000E-01  1.3812424299142E+00  6.2168335473288E-01
    63  6.2000000000000E-01  1.3762231674123E+00  6.2133914161993E-01
    64  6.3000000000000E-01  1.3685474677448E+00  6.2112686749117E-01
    65  6.4000000000000E-01  1.3581977962718E+00  6.2110233687957E-01
    66  6.5000000000000E-01  1.3451651617863E+00  6.2131924450881E-01
    67  6.6000000000000E-01  1.3294492237284E+00  6.2182885586207E-01
    68  6.7000000000000E-01  1.3110583646159E+00  6.2267971189159E-01
    69  6.8000000000000E-01  1.2900097276663E+00  6.2391735949533E-01
    70  6.9000000000000E-01  1.2663292197582E+00  6.2558410914384E-01
    71  7.0000000000000E-01  1.2400514800476E+00  6.2771882078751E-01
    72  7.1000000000000E-01  1.2112198147092E+00  6.3035671891330E-01
    73  7.2000000000000E-01  1.1798860984131E+00  6.3352923735391E-01
    74  7.3000000000000E-01  1.1461106432790E+00  6.3726389418288E-01
    75  7.4000000000000E-01  1.1099620361649E+00  6.4158419675923E-01
    76  7.5000000000000E-01  1.0715169452515E+00  6.4650957671751E-01
    77  7.6000000000000E-01  1.0308598969716E+00  6.5205535443540E-01
    78  7.7000000000000E-01  9.8808302441420E-01  6.5823273225479E-01
    79  7.8000000000000E-01  9.4328578839265E-01  6.6504881548522E-01
    80  7.9000000000000E-01  8.9657467242171E-01  6.7250665998346E-01
    81  8.0000000000000E-01  8.4806285288767E-01  6.8060534488227E-01
    82  8.1000000000000E-01  7.9786984572603E-01  6.8934006883733E-01
    83  8.2000000000000E-01  7.4612113094221E-01  6.9870226797500E-01
    84  8.3000000000000E-01  6.9294775632298E-01  7.0867975355937E-01
    85  8.4000000000000E-01  6.3848592169193E-01  7.1925686725329E-01
    86  8.5000000000000E-01  5.8287654506169E-01  7.3041465173004E-01
    87  8.6000000000000E-01  5.2626481203054E-01  7.4213103429782E-01
    88  8.7000000000000E-01  4.6879970976338E-01  7.5438102113252E-01
    89  8.8000000000000E-01  4.1063354688707E-01  7.6713689967360E-01
    90  8.9000000000000E-01  3.5192146062004E-01  7.8036844672580E-01
    91  9.0000000000000E-01  2.9282091244689E-01  7.9404313982441E-01
    92  9.1000000000000E-01  2.3349117364188E-01  8.0812636946623E-01
    93  9.2000000000000E-01  1.7409280194097E-01  8.2258164987865E-01
    94  9.3000000000000E-01  1.1478711066317E-01  8.3737082609810E-01
    95  9.4000000000000E-01  5.5735631587361E-02  8.5245427525357E-01
    96  9.5000000000000E-01 -2.9004270975159E-03  8.6779110009964E-01
    97  9.6000000000000E-01 -6.0960726432575E-02  8.8333931301679E-01
    98  9.7000000000000E-01 -1.1828634455823E-01  8.9905600889057E-01
    99  9.8000000000000E-01 -1.7472032541890E-01  9.1489752549480E-01
   100  9.9000000000000E-01 -2.3010822687017E-01  9.3081959023542E-01
   101  1.0000000000000E+00 -2.8429866670913E-01  9.4677745235618E-01