Au    ONCVPSP-4.0.1  r_core=   2.51184   2.43782   2.51184   2.42328
     79.0000     19.0000      210704    zatom,zion,pspd
     8      11   3     4   500     0    pspcod,pspxc,lmax,lloc,mmax,r2well
  4.99000000  5.00000000  0.00000000    rchrg fchrg qchrg
     2     2     2     1     0    nproj
     1     1           extension_switch
   0                        -3.7101947641366E+00 -4.0270457532247E-01
     1  0.0000000000000E+00 -2.4465984793665E-12  3.4710206930910E-11
     2  1.0000000000000E-02  2.8766010651950E-02 -2.9138250660988E-02
     3  2.0000000000000E-02  5.7511896499723E-02 -5.8223952630373E-02
     4  3.0000000000000E-02  8.6217560771804E-02 -8.7204716830834E-02
     5  4.0000000000000E-02  1.1486296259133E-01 -1.1602847210830E-01
     6  5.0000000000000E-02  1.4342814456757E-01 -1.4464362122521E-01
     7  6.0000000000000E-02  1.7189326003459E-01 -1.7299919361215E-01
     8  7.0000000000000E-02  2.0023859985690E-01 -2.0104499398066E-01
     9  8.0000000000000E-02  2.2844461872464E-01 -2.2873174593457E-01
    10  9.0000000000000E-02  2.5649196086331E-01 -2.5601122975896E-01
    11  1.0000000000000E-01  2.8436148508685E-01 -2.8283641361455E-01
    12  1.1000000000000E-01  3.1203428912609E-01 -3.0916157741970E-01
    13  1.2000000000000E-01  3.3949173316909E-01 -3.3494242876299E-01
    14  1.3000000000000E-01  3.6671546255407E-01 -3.6013621025493E-01
    15  1.4000000000000E-01  3.9368742956042E-01 -3.8470179779787E-01
    16  1.5000000000000E-01  4.2038991424835E-01 -4.0859978932760E-01
    17  1.6000000000000E-01  4.4680554430299E-01 -4.3179258365788E-01
    18  1.7000000000000E-01  4.7291731384411E-01 -4.5424444913963E-01
    19  1.8000000000000E-01  4.9870860116844E-01 -4.7592158192922E-01
    20  1.9000000000000E-01  5.2416318539718E-01 -4.9679215374344E-01
    21  2.0000000000000E-01  5.4926526200719E-01 -5.1682634906337E-01
    22  2.1000000000000E-01  5.7399945723027E-01 -5.3599639183287E-01
    23  2.2000000000000E-01  5.9835084131068E-01 -5.5427656178037E-01
    24  2.3000000000000E-01  6.2230494061709E-01 -5.7164320057360E-01
    25  2.4000000000000E-01  6.4584774861075E-01 -5.8807470809537E-01
    26  2.5000000000000E-01  6.6896573567734E-01 -6.0355152920391E-01
    27  2.6000000000000E-01  6.9164585783549E-01 -6.1805613141276E-01
    28  2.7000000000000E-01  7.1387556434015E-01 -6.3157297399191E-01
    29  2.8000000000000E-01  7.3564280420401E-01 -6.4408846905401E-01
    30  2.9000000000000E-01  7.5693603166503E-01 -6.5559093524551E-01
    31  3.0000000000000E-01  7.7774421063249E-01 -6.6607054471267E-01
    32  3.1000000000000E-01  7.9805681814811E-01 -6.7551926405587E-01
    33  3.2000000000000E-01  8.1786384690256E-01 -6.8393079002233E-01
    34  3.3000000000000E-01  8.3715580685115E-01 -6.9130048071645E-01
    35  3.4000000000000E-01  8.5592372597519E-01 -6.9762528312895E-01
    36  3.5000000000000E-01  8.7415915023848E-01 -7.0290365780017E-01
    37  3.6000000000000E-01  8.9185414279002E-01 -7.0713550143918E-01
    38  3.7000000000000E-01  9.0900128246625E-01 -7.1032206831898E-01
    39  3.8000000000000E-01  9.2559366164678E-01 -7.1246589125910E-01
    40  3.9000000000000E-01  9.4162488351883E-01 -7.1357070298990E-01
    41  4.0000000000000E-01  9.5708905880568E-01 -7.1364135866903E-01
    42  4.1000000000000E-01  9.7198080201428E-01 -7.1268376028868E-01
    43  4.2000000000000E-01  9.8629522725674E-01 -7.1070478367452E-01
    44  4.3000000000000E-01  1.0000279436994E+00 -7.0771220873234E-01
    45  4.4000000000000E-01  1.0131750506913E+00 -7.0371465354751E-01
    46  4.5000000000000E-01  1.0257331326239E+00 -6.9872151288660E-01
    47  4.6000000000000E-01  1.0376992535676E+00 -6.9274290158895E-01
    48  4.7000000000000E-01  1.0490709517343E+00 -6.8578960327087E-01
    49  4.8000000000000E-01  1.0598462338058E+00 -6.7787302469539E-01
    50  4.9000000000000E-01  1.0700235691702E+00 -6.6900515608892E-01
    51  5.0000000000000E-01  1.0796018841005E+00 -6.5919853761096E-01
    52  5.1000000000000E-01  1.0885805559102E+00 -6.4846623210741E-01
    53  5.2000000000000E-01  1.0969594071135E+00 -6.3682180420050E-01
    54  5.3000000000000E-01  1.1047386996156E+00 -6.2427930569164E-01
    55  5.4000000000000E-01  1.1119191289532E+00 -6.1085326717688E-01
    56  5.5000000000000E-01  1.1185018186035E+00 -5.9655869569949E-01
    57  5.6000000000000E-01  1.1244883143724E+00 -5.8141107819141E-01
    58  5.7000000000000E-01  1.1298805788707E+00 -5.6542639038506E-01
    59  5.8000000000000E-01  1.1346809860829E+00 -5.4862111081058E-01
    60  5.9000000000000E-01  1.1388923160277E+00 -5.3101223943094E-01
    61  6.0000000000000E-01  1.1425177495069E+00 -5.1261732040997E-01
    62  6.1000000000000E-01  1.1455608629334E+00 -4.9345446845602E-01
    63  6.2000000000000E-01  1.1480256232281E+00 -4.7354239813750E-01
    64  6.3000000000000E-01  1.1499163827697E+00 -4.5290045552666E-01
    65  6.4000000000000E-01  1.1512378743787E+00 -4.3154865149461E-01
    66  6.5000000000000E-01  1.1519952063152E+00 -4.0950769595445E-01
    67  6.6000000000000E-01  1.1521938572654E+00 -3.8679903233030E-01
    68  6.7000000000000E-01  1.1518396712904E+00 -3.6344487151909E-01
    69  6.8000000000000E-01  1.1509388527096E+00 -3.3946822460814E-01
    70  6.9000000000000E-01  1.1494979608878E+00 -3.1489293361570E-01
    71  7.0000000000000E-01  1.1475239048946E+00 -2.8974369953370E-01
    72  7.1000000000000E-01  1.1450239380033E+00 -2.6404610697134E-01
    73  7.2000000000000E-01  1.1420056519973E+00 -2.3782664472511E-01
    74  7.3000000000000E-01  1.1384769712496E+00 -2.1111272163549E-01
    75  7.4000000000000E-01  1.1344461465436E+00 -1.8393267713122E-01
    76  7.5000000000000E-01  1.1299217486013E+00 -1.5631578591033E-01
    77  7.6000000000000E-01  1.1249126612897E+00 -1.2829225626090E-01
    78  7.7000000000000E-01  1.1194280744734E+00 -9.9893221583931E-02
    79  7.8000000000000E-01  1.1134774764856E+00 -7.1150724745718E-02
    80  7.9000000000000E-01  1.1070706461929E+00 -4.2097694956103E-02
    81  8.0000000000000E-01  1.1002176446271E+00 -1.2767916942035E-02
    82  8.1000000000000E-01  1.0929288061663E+00  1.6804007737814E-02
    83  8.2000000000000E-01  1.0852147292438E+00  4.6582707313033E-02
    84  8.3000000000000E-01  1.0770862665724E+00  7.6532094351377E-02
    85  8.4000000000000E-01  1.0685545148717E+00  1.0661542815252E-01
    86  8.5000000000000E-01  1.0596308040902E+00  1.3679538481815E-01
    87  8.6000000000000E-01  1.0503266861187E+00  1.6703413475002E-01
    88  8.7000000000000E-01  1.0406539229949E+00  1.9729342724814E-01
    89  8.8000000000000E-01  1.0306244746030E+00  2.2753468180393E-01
    90  8.9000000000000E-01  1.0202504858765E+00  2.5771908560892E-01
    91  9.0000000000000E-01  1.0095442735165E+00  2.8780769672857E-01
    92  9.1000000000000E-01  9.9851831224127E-01  3.1776155232490E-01
    93  9.2000000000000E-01  9.8718522058864E-01  3.4754178124971E-01
    94  9.3000000000000E-01  9.7555774629432E-01  3.7710972027495E-01
    95  9.4000000000000E-01  9.6364875127541E-01  4.0642703317716E-01
    96  9.5000000000000E-01  9.5147119625060E-01  4.3545583184999E-01
    97  9.6000000000000E-01  9.3903812503298E-01  4.6415879858347E-01
    98  9.7000000000000E-01  9.2636264853417E-01  4.9249930862085E-01
    99  9.8000000000000E-01  9.1345792852196E-01  5.2044155208329E-01
   100  9.9000000000000E-01  9.0033716117634E-01  5.4795065434152E-01
   101  1.0000000000000E+00  8.8701356049132E-01  5.7499279390935E-01
   102  1.0100000000000E+00  8.7350034157239E-01  6.0153531693949E-01
   103  1.0200000000000E+00  8.5981070388100E-01  6.2754684741508E-01
   104  1.0300000000000E+00  8.4595781447955E-01  6.5299739215249E-01
   105  1.0400000000000E+00  8.3195479133100E-01  6.7785843976096E-01
   106  1.0500000000000E+00  8.1781468670846E-01  7.0210305274309E-01
   107  1.0600000000000E+00  8.0355047077039E-01  7.2570595196606E-01
   108  1.0700000000000E+00  7.8917501535716E-01  7.4864359278721E-01
   109  1.0800000000000E+00  7.7470107806427E-01  7.7089423217816E-01
   110  1.0900000000000E+00  7.6014128664702E-01  7.9243798625872E-01
   111  1.1000000000000E+00  7.4550812381013E-01  8.1325687772508E-01
   112  1.1100000000000E+00  7.3081391243443E-01  8.3333487273514E-01
   113  1.1200000000000E+00  7.1607080129094E-01  8.5265790689735E-01
   114  1.1300000000000E+00  7.0129075129032E-01  8.7121390009608E-01
   115  1.1400000000000E+00  6.8648552231330E-01  8.8899275997778E-01
   116  1.1500000000000E+00  6.7166666066486E-01  9.0598637401413E-01
   117  1.1600000000000E+00  6.5684548719154E-01  9.2218859015376E-01
   118  1.1700000000000E+00  6.4203308609830E-01  9.3759518616874E-01
   119  1.1800000000000E+00  6.2724029449723E-01  9.5220382789772E-01
   120  1.1900000000000E+00  6.1247769271686E-01  9.6601401668148E-01
   121  1.2000000000000E+00  5.9775559539660E-01  9.7902702637952E-01
   122  1.2100000000000E+00  5.8308404338674E-01  9.9124583044596E-01
   123  1.2200000000000E+00  5.6847279646990E-01  1.0026750196294E+00
   124  1.2300000000000E+00  5.5393132691560E-01  1.0133207109439E+00
   125  1.2400000000000E+00  5.3946881387501E-01  1.0231904486347E+00
   126  1.2500000000000E+00  5.2509413861831E-01  1.0322930979347E+00
   127  1.2600000000000E+00  5.1081588061285E-01  1.0406387324714E+00
   128  1.2700000000000E+00  4.9664231443547E-01  1.0482385162425E+00
   129  1.2800000000000E+00  4.8258140750814E-01  1.0551045811300E+00
   130  1.2900000000000E+00  4.6864081864184E-01  1.0612499009609E+00
   131  1.3000000000000E+00  4.5482789736910E-01  1.0666881631604E+00
   132  1.3100000000000E+00  4.4114968404203E-01  1.0714336390663E+00
   133  1.3200000000000E+00  4.2761291066853E-01  1.0755010539869E+00
   134  1.3300000000000E+00  4.1422400245592E-01  1.0789054580940E+00
   135  1.3400000000000E+00  4.0098908002793E-01  1.0816620992366E+00
   136  1.3500000000000E+00  3.8791396227776E-01  1.0837862987480E+00
   137  1.3600000000000E+00  3.7500416981729E-01  1.0852933312973E+00
   138  1.3700000000000E+00  3.6226492898001E-01  1.0861983098029E+00
   139  1.3800000000000E+00  3.4970117633292E-01  1.0865160763854E+00
   140  1.3900000000000E+00  3.3731756365109E-01  1.0862611002857E+00
   141  1.4000000000000E+00  3.2511846330702E-01  1.0854473836172E+00
   142  1.4100000000000E+00  3.1310797402560E-01  1.0840883757529E+00
   143  1.4200000000000E+00  3.0128992695508E-01  1.0821968970740E+00
   144  1.4300000000000E+00  2.8966789200385E-01  1.0797850727268E+00
   145  1.4400000000000E+00  2.7824518439276E-01  1.0768642769459E+00
   146  1.4500000000000E+00  2.6702487137329E-01  1.0734450884094E+00
   147  1.4600000000000E+00  2.5600977906217E-01  1.0695372569948E+00
   148  1.4700000000000E+00  2.4520249934450E-01  1.0651496822025E+00
   149  1.4800000000000E+00  2.3460539679842E-01  1.0602904034097E+00
   150  1.4900000000000E+00  2.2422061559631E-01  1.0549666020095E+00
   151  1.5000000000000E+00  2.1405008633923E-01  1.0491846153866E+00
   152  1.5100000000000E+00  2.0409553278378E-01  1.0429499625670E+00
   153  1.5200000000000E+00  1.9435847842293E-01  1.0362673812787E+00
   154  1.5300000000000E+00  1.8484025288522E-01  1.0291408760487E+00
   155  1.5400000000000E+00  1.7554199811949E-01  1.0215737768653E+00
   156  1.5500000000000E+00  1.6646467433588E-01  1.0135688078289E+00
   157  1.5600000000000E+00  1.5760906567654E-01  1.0051281651255E+00
   158  1.5700000000000E+00  1.4897578559363E-01  9.9625360356442E-01
   159  1.5800000000000E+00  1.4056528191508E-01  9.8694653084003E-01
   160  1.5900000000000E+00  1.3237784158285E-01  9.7720810859971E-01
   161  1.6000000000000E+00  1.2441359505149E-01  9.6703935933355E-01
   162  1.6100000000000E+00  1.1667252033915E-01  9.5644127803955E-01
   163  1.6200000000000E+00  1.0915444672620E-01  9.4541494756714E-01
   164  1.6300000000000E+00  1.0185905810099E-01  9.3396165650026E-01
   165  1.6400000000000E+00  9.4785895955224E-02  9.2208301840869E-01
   166  1.6500000000000E+00  8.7934362035349E-02  9.0978109127471E-01
   167  1.6600000000000E+00  8.1303720659600E-02  8.9705849589078E-01
   168  1.6700000000000E+00  7.4893100713538E-02  8.8391853202308E-01
   169  1.6800000000000E+00  6.8701497340047E-02  8.7036529114569E-01
   170  1.6900000000000E+00  6.2727773342632E-02  8.5640376457098E-01
   171  1.7000000000000E+00  5.6970660323516E-02  8.4203994583293E-01
   172  1.7100000000000E+00  5.1428759580500E-02  8.2728092622174E-01
   173  1.7200000000000E+00  4.6100542788744E-02  8.1213498241995E-01
   174  1.7300000000000E+00  4.0984352495607E-02  7.9661165525156E-01
   175  1.7400000000000E+00  3.6078402458339E-02  7.8072181862650E-01
   176  1.7500000000000E+00  3.1380777855846E-02  7.6447773784201E-01
   177  1.7600000000000E+00  2.6889435406908E-02  7.4789311649006E-01
   178  1.7700000000000E+00  2.2602203427998E-02  7.3098313131442E-01
   179  1.7800000000000E+00  1.8516781864498E-02  7.1376445446253E-01
   180  1.7900000000000E+00  1.4630742329293E-02  6.9625526268410E-01
   181  1.8000000000000E+00  1.0941528182765E-02  6.7847523314025E-01
   182  1.8100000000000E+00  7.4464546878536E-03  6.6044552560246E-01
   183  1.8200000000000E+00  4.1427092733177E-03  6.4218875093951E-01
   184  1.8300000000000E+00  1.0273519374656E-03  6.2372892591038E-01
   185  1.8400000000000E+00 -1.9026841764845E-03  6.0509141440276E-01
   186  1.8500000000000E+00 -4.6505920035662E-03  5.8630285537753E-01
   187  1.8600000000000E+00 -7.2196895505093E-03  5.6739107789953E-01
   188  1.8700000000000E+00 -9.6134186329579E-03  5.4838500375122E-01
   189  1.8800000000000E+00 -1.1835343331989E-02  5.2931453824156E-01
   190  1.8900000000000E+00 -1.3889148147575E-02  5.1021044993037E-01
   191  1.9000000000000E+00 -1.5778635828953E-02  4.9110424009352E-01
   192  1.9100000000000E+00 -1.7507724864318E-02  4.7202800285179E-01
   193  1.9200000000000E+00 -1.9080446614829E-02  4.5301427697707E-01
   194  1.9300000000000E+00 -2.0500942080543E-02  4.3409589047214E-01
   195  1.9400000000000E+00 -2.1773458288690E-02  4.1530579909430E-01
   196  1.9500000000000E+00 -2.2902344297412E-02  3.9667692005726E-01
   197  1.9600000000000E+00 -2.3892046810929E-02  3.7824196219963E-01
   198  1.9700000000000E+00 -2.4747105404950E-02  3.6003325395306E-01
   199  1.9800000000000E+00 -2.5472147363896E-02  3.4208257047440E-01
   200  1.9900000000000E+00 -2.6071882134324E-02  3.2442096132806E-01
   201  2.0000000000000E+00 -2.6551095401602E-02  3.0707858011397E-01
   202  2.0100000000000E+00 -2.6914642799621E-02  2.9008451743377E-01
   203  2.0200000000000E+00 -2.7167443265761E-02  2.7346663857422E-01
   204  2.0300000000000E+00 -2.7314472055868E-02  2.5725142726069E-01
   205  2.0400000000000E+00 -2.7360753436319E-02  2.4146383679517E-01
   206  2.0500000000000E+00 -2.7311353072391E-02  2.2612714984451E-01
   207  2.0600000000000E+00 -2.7171370134218E-02  2.1126284808500E-01
   208  2.0700000000000E+00 -2.6945929143533E-02  1.9689049283516E-01
   209  2.0800000000000E+00 -2.6640171585986E-02  1.8302761773513E-01
   210  2.0900000000000E+00 -2.6259247315509E-02  1.6968963443276E-01
   211  2.1000000000000E+00 -2.5808305778452E-02  1.5688975214182E-01
   212  2.1100000000000E+00 -2.5292487086395E-02  1.4463891183107E-01
   213  2.1200000000000E+00 -2.4716912967528E-02  1.3294573568424E-01
   214  2.1300000000000E+00 -2.4086677627222E-02  1.2181649236138E-01
   215  2.1400000000000E+00 -2.3406838549056E-02  1.1125507845701E-01
   216  2.1500000000000E+00 -2.2682407267937E-02  1.0126301642476E-01
   217  2.1600000000000E+00 -2.1918340147140E-02  9.1839469109556E-02
   218  2.1700000000000E+00 -2.1119529191124E-02  8.2981270883323E-02
   219  2.1800000000000E+00 -2.0290792925881E-02  7.4682975271321E-02
   220  2.1900000000000E+00 -1.9436867378172E-02  6.6936918788530E-02
   221  2.2000000000000E+00 -1.8562397184609E-02  5.9733300598556E-02
   222  2.2100000000000E+00 -1.7671926860793E-02  5.3060277461874E-02
   223  2.2200000000000E+00 -1.6769892260101E-02  4.6904073331678E-02
   224  2.2300000000000E+00 -1.5860612250690E-02  4.1249102817685E-02
   225  2.2400000000000E+00 -1.4948280638286E-02  3.6078107630247E-02
   226  2.2500000000000E+00 -1.4036958361161E-02  3.1372305006495E-02
   227  2.2600000000000E+00 -1.3130565982574E-02  2.7111547029361E-02
   228  2.2700000000000E+00 -1.2232876504577E-02  2.3274489647760E-02
   229  2.2800000000000E+00 -1.1347508525632E-02  1.9838770126726E-02
   230  2.2900000000000E+00 -1.0477919763038E-02  1.6781191586139E-02
   231  2.3000000000000E+00 -9.6274009599172E-03  1.4077913233354E-02
   232  2.3100000000000E+00 -8.7990701946513E-03  1.1704644831818E-02
   233  2.3200000000000E+00 -7.9958676092880E-03  9.6368439191995E-03
   234  2.3300000000000E+00 -7.2205505716149E-03  7.8499142651782E-03
   235  2.3400000000000E+00 -6.4756892263632E-03  6.3194041849173E-03
   236  2.3500000000000E+00 -5.7636627914811E-03  5.0212023374279E-03
   237  2.3600000000000E+00 -5.0866563114683E-03  3.9317300893750E-03
   238  2.3700000000000E+00 -4.4466553444551E-03  3.0281367027258E-03
   239  2.3800000000000E+00 -3.8454478978443E-03  2.2884663119933E-03
   240  2.3900000000000E+00 -3.2846387050633E-03  1.6917968894776E-03
   241  2.4000000000000E+00 -2.7657038235905E-03  1.2182864880355E-03
   242  2.4100000000000E+00 -2.2898390956862E-03  8.4968378575051E-04
   243  2.4200000000000E+00 -1.8579567460944E-03  5.6948467802799E-04
   244  2.4300000000000E+00 -1.4707894103136E-03  3.6278187712329E-04
   245  2.4400000000000E+00 -1.1288606210030E-03  2.1613537830700E-04
   246  2.4500000000000E+00 -8.3247978447352E-04  1.1736524552516E-04
   247  2.4600000000000E+00 -5.8173691833468E-04  5.5404813718283E-05
   248  2.4700000000000E+00 -3.7656146512149E-04  2.0425951663326E-05
   249  2.4800000000000E+00 -2.1649413735055E-04  3.9096831335421E-06
   250  2.4900000000000E+00 -1.0035534898476E-04 -1.2889242535569E-06
   251  2.5000000000000E+00 -3.0423883449373E-05 -1.2371918202411E-06
   252  2.5100000000000E+00 -1.9984496195788E-06 -1.3716262949646E-07
   253  2.5200000000000E+00  2.0566515331050E-06  1.6257021303049E-07
   254  2.5300000000000E+00 -4.8984906359157E-07 -3.0287039652686E-08
   255  2.54 -0. -0.
   256  2.55  0.  0.
   257  2.56 -0. -0.
   258  2.57 -0. -0.
   259  2.58  0.  0.
   260  2.59  0.  0.
   261  2.60  0.  0.
   262  2.61  0.  0.
   263  2.62  0.  0.
   264  2.63  0.  0.
   265  2.64  0.  0.
   266  2.65  0.  0.
   267  2.66  0.  0.
   268  2.67  0.  0.
   269  2.68  0.  0.
   270  2.69  0.  0.
   271  2.70  0.  0.
   272  2.71  0.  0.
   273  2.72  0.  0.
   274  2.73  0.  0.
   275  2.74  0.  0.
   276  2.75  0.  0.
   277  2.76  0.  0.
   278  2.77  0.  0.
   279  2.78  0.  0.
   280  2.79  0.  0.
   281  2.80  0.  0.
   282  2.81  0.  0.
   283  2.82  0.  0.
   284  2.83  0.  0.
   285  2.84  0.  0.
   286  2.85  0.  0.
   287  2.86  0.  0.
   288  2.87  0.  0.
   289  2.88  0.  0.
   290  2.89  0.  0.
   291  2.90  0.  0.
   292  2.91  0.  0.
   293  2.92  0.  0.
   294  2.93  0.  0.
   295  2.94  0.  0.
   296  2.95  0.  0.
   297  2.96  0.  0.
   298  2.97  0.  0.
   299  2.98  0.  0.
   300  2.99  0.  0.
   301  3.00  0.  0.
   302  3.01  0.  0.
   303  3.02  0.  0.
   304  3.03  0.  0.
   305  3.04  0.  0.
   306  3.05  0.  0.
   307  3.06  0.  0.
   308  3.07  0.  0.
   309  3.08  0.  0.
   310  3.09  0.  0.
   311  3.10  0.  0.
   312  3.11  0.  0.
   313  3.12  0.  0.
   314  3.13  0.  0.
   315  3.14  0.  0.
   316  3.15  0.  0.
   317  3.16  0.  0.
   318  3.17  0.  0.
   319  3.18  0.  0.
   320  3.19  0.  0.
   321  3.20  0.  0.
   322  3.21  0.  0.
   323  3.22  0.  0.
   324  3.23  0.  0.
   325  3.24  0.  0.
   326  3.25  0.  0.
   327  3.26  0.  0.
   328  3.27  0.  0.
   329  3.28  0.  0.
   330  3.29  0.  0.
   331  3.30  0.  0.
   332  3.31  0.  0.
   333  3.32  0.  0.
   334  3.33  0.  0.
   335  3.34  0.  0.
   336  3.35  0.  0.
   337  3.36  0.  0.
   338  3.37  0.  0.
   339  3.38  0.  0.
   340  3.39  0.  0.
   341  3.40  0.  0.
   342  3.41  0.  0.
   343  3.42  0.  0.
   344  3.43  0.  0.
   345  3.44  0.  0.
   346  3.45  0.  0.
   347  3.46  0.  0.
   348  3.47  0.  0.
   349  3.48  0.  0.
   350  3.49  0.  0.
   351  3.50  0.  0.
   352  3.51  0.  0.
   353  3.52  0.  0.
   354  3.53  0.  0.
   355  3.54  0.  0.
   356  3.55  0.  0.
   357  3.56  0.  0.
   358  3.57  0.  0.
   359  3.58  0.  0.
   360  3.59  0.  0.
   361  3.60  0.  0.
   362  3.61  0.  0.
   363  3.62  0.  0.
   364  3.63  0.  0.
   365  3.64  0.  0.
   366  3.65  0.  0.
   367  3.66  0.  0.
   368  3.67  0.  0.
   369  3.68  0.  0.
   370  3.69  0.  0.
   371  3.70  0.  0.
   372  3.71  0.  0.
   373  3.72  0.  0.
   374  3.73  0.  0.
   375  3.74  0.  0.
   376  3.75  0.  0.
   377  3.76  0.  0.
   378  3.77  0.  0.
   379  3.78  0.  0.
   380  3.79  0.  0.
   381  3.80  0.  0.
   382  3.81  0.  0.
   383  3.82  0.  0.
   384  3.83  0.  0.
   385  3.84  0.  0.
   386  3.85  0.  0.
   387  3.86  0.  0.
   388  3.87  0.  0.
   389  3.88  0.  0.
   390  3.89  0.  0.
   391  3.90  0.  0.
   392  3.91  0.  0.
   393  3.92  0.  0.
   394  3.93  0.  0.
   395  3.94  0.  0.
   396  3.95  0.  0.
   397  3.96  0.  0.
   398  3.97  0.  0.
   399  3.98  0.  0.
   400  3.99  0.  0.
   401  4.00  0.  0.
   402  4.01  0.  0.
   403  4.02  0.  0.
   404  4.03  0.  0.
   405  4.04  0.  0.
   406  4.05  0.  0.
   407  4.06  0.  0.
   408  4.07  0.  0.
   409  4.08  0.  0.
   410  4.09  0.  0.
   411  4.10  0.  0.
   412  4.11  0.  0.
   413  4.12  0.  0.
   414  4.13  0.  0.
   415  4.14  0.  0.
   416  4.15  0.  0.
   417  4.16  0.  0.
   418  4.17  0.  0.
   419  4.18  0.  0.
   420  4.19  0.  0.
   421  4.20  0.  0.
   422  4.21  0.  0.
   423  4.22  0.  0.
   424  4.23  0.  0.
   425  4.24  0.  0.
   426  4.25  0.  0.
   427  4.26  0.  0.
   428  4.27  0.  0.
   429  4.28  0.  0.
   430  4.29  0.  0.
   431  4.30  0.  0.
   432  4.31  0.  0.
   433  4.32  0.  0.
   434  4.33  0.  0.
   435  4.34  0.  0.
   436  4.35  0.  0.
   437  4.36  0.  0.
   438  4.37  0.  0.
   439  4.38  0.  0.
   440  4.39  0.  0.
   441  4.40  0.  0.
   442  4.41  0.  0.
   443  4.42  0.  0.
   444  4.43  0.  0.
   445  4.44  0.  0.
   446  4.45  0.  0.
   447  4.46  0.  0.
   448  4.47  0.  0.
   449  4.48  0.  0.
   450  4.49  0.  0.
   451  4.50  0.  0.
   452  4.51  0.  0.
   453  4.52  0.  0.
   454  4.53  0.  0.
   455  4.54  0.  0.
   456  4.55  0.  0.
   457  4.56  0.  0.
   458  4.57  0.  0.
   459  4.58  0.  0.
   460  4.59  0.  0.
   461  4.60  0.  0.
   462  4.61  0.  0.
   463  4.62  0.  0.
   464  4.63  0.  0.
   465  4.64  0.  0.
   466  4.65  0.  0.
   467  4.66  0.  0.
   468  4.67  0.  0.
   469  4.68  0.  0.
   470  4.69  0.  0.
   471  4.70  0.  0.
   472  4.71  0.  0.
   473  4.72  0.  0.
   474  4.73  0.  0.
   475  4.74  0.  0.
   476  4.75  0.  0.
   477  4.76  0.  0.
   478  4.77  0.  0.
   479  4.78  0.  0.
   480  4.79  0.  0.
   481  4.80  0.  0.
   482  4.81  0.  0.
   483  4.82  0.  0.
   484  4.83  0.  0.
   485  4.84  0.  0.
   486  4.85  0.  0.
   487  4.86  0.  0.
   488  4.87  0.  0.
   489  4.88  0.  0.
   490  4.89  0.  0.
   491  4.90  0.  0.
   492  4.91  0.  0.
   493  4.92  0.  0.
   494  4.93  0.  0.
   495  4.94  0.  0.
   496  4.95  0.  0.
   497  4.96  0.  0.
   498  4.97  0.  0.
   499  4.98  0.  0.
   500  4.99  0.  0.
   1                        -3.6491932354361E+00 -8.4616851465879E-01
     1  0.0000000000000E+00  1.2336492938303E-11 -5.6645611812289E-11
     2  1.0000000000000E-02  5.1192553016167E-04 -5.3400187026636E-04
     3  2.0000000000000E-02  2.0467904677378E-03 -2.1342308505337E-03
     4  3.0000000000000E-02  4.6018619530204E-03 -4.7953635356144E-03
     5  4.0000000000000E-02  8.1725922045555E-03 -8.5085491658570E-03
     6  5.0000000000000E-02  1.2752628959799E-02 -1.3261441873463E-02
     7  6.0000000000000E-02  1.8333830027559E-02 -1.9038245587270E-02
     8  7.0000000000000E-02  2.4906281895733E-02 -2.5819771370249E-02
     9  8.0000000000000E-02  3.2458322325534E-02 -3.3583506907304E-02
    10  9.0000000000000E-02  4.0976566851327E-02 -4.2303697805954E-02
    11  1.0000000000000E-01  5.0445939093581E-02 -5.1951440319367E-02
    12  1.1000000000000E-01  6.0849704781186E-02 -6.2494785050460E-02
    13  1.2000000000000E-01  7.2169509368638E-02 -7.3898851147420E-02
    14  1.3000000000000E-01  8.4385419123352E-02 -8.6125950455473E-02
    15  1.4000000000000E-01  9.7475965548630E-02 -9.9135721047194E-02
    16  1.5000000000000E-01  1.1141819299872E-01 -1.1288526951428E-01
    17  1.6000000000000E-01  1.2618770933391E-01 -1.2732932136783E-01
    18  1.7000000000000E-01  1.4175873945567E-01 -1.4242037886174E-01
    19  1.8000000000000E-01  1.5810418155485E-01 -1.5810888552546E-01
    20  1.9000000000000E-01  1.7519566589920E-01 -1.7434339666733E-01
    21  2.0000000000000E-01  1.9300361598099E-01 -1.9107075508944E-01
    22  2.1000000000000E-01  2.1149731184033E-01 -2.0823627123780E-01
    23  2.2000000000000E-01  2.3064495537546E-01 -2.2578390699973E-01
    24  2.3000000000000E-01  2.5041373744790E-01 -2.4365646235170E-01
    25  2.4000000000000E-01  2.7076990658758E-01 -2.6179576405680E-01
    26  2.5000000000000E-01  2.9167883910080E-01 -2.8014285561143E-01
    27  2.6000000000000E-01  3.1310511038311E-01 -2.9863818764481E-01
    28  2.7000000000000E-01  3.3501256723818E-01 -3.1722180798346E-01
    29  2.8000000000000E-01  3.5736440100446E-01 -3.3583355060513E-01
    30  2.9000000000000E-01  3.8012322129212E-01 -3.5441322272324E-01
    31  3.0000000000000E-01  4.0325113013452E-01 -3.7290078926269E-01
    32  3.1000000000000E-01  4.2670979636104E-01 -3.9123655401215E-01
    33  3.2000000000000E-01  4.5046053000098E-01 -4.0936133676489E-01
    34  3.3000000000000E-01  4.7446435653196E-01 -4.2721664579096E-01
    35  3.4000000000000E-01  4.9868209079086E-01 -4.4474484501726E-01
    36  3.5000000000000E-01  5.2307441036991E-01 -4.6188931532862E-01
    37  3.6000000000000E-01  5.4760192832635E-01 -4.7859460944208E-01
    38  3.7000000000000E-01  5.7222526503981E-01 -4.9480659984828E-01
    39  3.8000000000000E-01  5.9690511905837E-01 -5.1047261935767E-01
    40  3.9000000000000E-01  6.2160233678081E-01 -5.2554159383458E-01
    41  4.0000000000000E-01  6.4627798083019E-01 -5.3996416674958E-01
    42  4.1000000000000E-01  6.7089339698152E-01 -5.5369281522868E-01
    43  4.2000000000000E-01  6.9541027951412E-01 -5.6668195732774E-01
    44  4.3000000000000E-01  7.1979073486772E-01 -5.7888805030994E-01
    45  4.4000000000000E-01  7.4399734348980E-01 -5.9026967975515E-01
    46  4.5000000000000E-01  7.6799321977018E-01 -6.0078763938024E-01
    47  4.6000000000000E-01  7.9174206996795E-01 -6.1040500149973E-01
    48  4.7000000000000E-01  8.1520824804443E-01 -6.1908717810595E-01
    49  4.8000000000000E-01  8.3835680932493E-01 -6.2680197259694E-01
    50  4.9000000000000E-01  8.6115356192104E-01 -6.3351962222796E-01
    51  5.0000000000000E-01  8.8356511585383E-01 -6.3921283140929E-01
    52  5.1000000000000E-01  9.0555892982749E-01 -6.4385679601747E-01
    53  5.2000000000000E-01  9.2710335561117E-01 -6.4742921893053E-01
    54  5.3000000000000E-01  9.4816767999571E-01 -6.4991031703832E-01
    55  5.4000000000000E-01  9.6872216429985E-01 -6.5128282001757E-01
    56  5.5000000000000E-01  9.8873808140880E-01 -6.5153196119753E-01
    57  5.6000000000000E-01  1.0081877503358E+00 -6.5064546087484E-01
    58  5.7000000000000E-01  1.0270445683047E+00 -6.4861350246704E-01
    59  5.8000000000000E-01  1.0452830403585E+00 -6.4542870192081E-01
    60  5.9000000000000E-01  1.0628788065064E+00 -6.4108607081572E-01
    61  6.0000000000000E-01  1.0798086664268E+00 -6.3558297362431E-01
    62  6.1000000000000E-01  1.0960506017521E+00 -6.2891907960721E-01
    63  6.2000000000000E-01  1.1115837959631E+00 -6.2109630983552E-01
    64  6.3000000000000E-01  1.1263886519305E+00 -6.1211877984320E-01
    65  6.4000000000000E-01  1.1404468071411E+00 -6.0199273841894E-01
    66  6.5000000000000E-01  1.1537411466543E+00 -5.9072650305037E-01
    67  6.6000000000000E-01  1.1662558138362E+00 -5.7833039253330E-01
    68  6.7000000000000E-01  1.1779762189220E+00 -5.6481665725482E-01
    69  6.8000000000000E-01  1.1888890454613E+00 -5.5019940765226E-01
    70  6.9000000000000E-01  1.1989822547033E+00 -5.3449454133960E-01
    71  7.0000000000000E-01  1.2082450879785E+00 -5.1771966937930E-01
    72  7.1000000000000E-01  1.2166680671388E+00 -4.9989404216099E-01
    73  7.2000000000000E-01  1.2242429931163E+00 -4.8103847532900E-01
    74  7.3000000000000E-01  1.2309629426622E+00 -4.6117527617836E-01
    75  7.4000000000000E-01  1.2368222633285E+00 -4.4032817091408E-01
    76  7.5000000000000E-01  1.2418165667539E+00 -4.1852223314151E-01
    77  7.6000000000000E-01  1.2459427203164E+00 -3.9578381392603E-01
    78  7.7000000000000E-01  1.2491988372116E+00 -3.7214047372933E-01
    79  7.8000000000000E-01  1.2515842650185E+00 -3.4762091649637E-01
    80  7.9000000000000E-01  1.2530995728097E+00 -3.2225492613300E-01
    81  8.0000000000000E-01  1.2537465368637E+00 -2.9607330557858E-01
    82  8.1000000000000E-01  1.2535281250326E+00 -2.6910781864154E-01
    83  8.2000000000000E-01  1.2524484798205E+00 -2.4139113472868E-01
    84  8.3000000000000E-01  1.2505129002215E+00 -2.1295677656180E-01
    85  8.4000000000000E-01  1.2477278223656E+00 -1.8383907093748E-01
    86  8.5000000000000E-01  1.2441007990202E+00 -1.5407310254856E-01
    87  8.6000000000000E-01  1.2396404779891E+00 -1.2369467084906E-01
    88  8.7000000000000E-01  1.2343565794501E+00 -9.2740249908003E-02
    89  8.8000000000000E-01  1.2282598722706E+00 -6.1246951162520E-02
    90  8.9000000000000E-01  1.2213621493366E+00 -2.9252488946416E-02
    91  9.0000000000000E-01  1.2136762019285E+00  3.2048513616954E-03
    92  9.1000000000000E-01  1.2052157931752E+00  3.6086242757773E-02
    93  9.2000000000000E-01  1.1959956306155E+00  6.9352343814767E-02