Hg    ONCVPSP-4.0.1  r_core=   1.90641   2.20074   2.51029   2.08539
     80.0000     20.0000      220729    zatom,zion,pspd
     8      11   3     4   600     0    pspcod,pspxc,lmax,lloc,mmax,r2well
  5.99000000  5.00000000  0.00000000    rchrg fchrg qchrg
     2     2     2     1     0    nproj
     1     1           extension_switch
   0                         3.5444735160065E+00 -4.3143086011416E-01
     1  0.0000000000000E+00  3.1291969015967E-11  6.5117397585190E-11
     2  1.0000000000000E-02  6.3212219068043E-02  1.4773197232598E-02
     3  2.0000000000000E-02  1.2630354928542E-01  2.9554684100659E-02
     4  3.0000000000000E-02  1.8915332099600E-01  4.4352621310109E-02
     5  4.0000000000000E-02  2.5164130306521E-01  5.9174913178906E-02
     6  5.0000000000000E-02  3.1364792246413E-01  7.4029083104090E-02
     7  6.0000000000000E-02  3.7505448421888E-01  8.8922153375342E-02
     8  7.0000000000000E-02  4.3574339180995E-01  1.0386053070661E-01
     9  8.0000000000000E-02  4.9559836807468E-01  1.1884989879225E-01
    10  9.0000000000000E-02  5.5450467662785E-01  1.3389511911403E-01
    11  1.0000000000000E-01  6.1234934377051E-01  1.4900014113141E-01
    12  1.1000000000000E-01  6.6902138080648E-01  1.6416792288068E-01
    13  1.2000000000000E-01  7.2441200662999E-01  1.7940036288946E-01
    14  1.3000000000000E-01  7.7841487038765E-01  1.9469824418473E-01
    15  1.4000000000000E-01  8.3092627395390E-01  2.1006119103386E-01
    16  1.5000000000000E-01  8.8184539389239E-01  2.2548763891335E-01
    17  1.6000000000000E-01  9.3107450250737E-01  2.4097481804871E-01
    18  1.7000000000000E-01  9.7851918751975E-01  2.5651875071395E-01
    19  1.8000000000000E-01  1.0240885698335E+00  2.7211426232183E-01
    20  1.9000000000000E-01  1.0676955187901E+00  2.8775500617850E-01
    21  2.0000000000000E-01  1.1092568642432E+00  3.0343350161947E-01
    22  2.1000000000000E-01  1.1486936047221E+00  3.1914118509094E-01
    23  2.2000000000000E-01  1.1859311108971E+00  3.3486847359181E-01
    24  2.3000000000000E-01  1.2208993235021E+00  3.5060483975010E-01
    25  2.4000000000000E-01  1.2535329448266E+00  3.6633889767386E-01
    26  2.5000000000000E-01  1.2837716228474E+00  3.8205849859247E-01
    27  2.6000000000000E-01  1.3115601270364E+00  3.9775083519193E-01
    28  2.7000000000000E-01  1.3368485148569E+00  4.1340255344686E-01
    29  2.8000000000000E-01  1.3595922879474E+00  4.2899987066576E-01
    30  2.9000000000000E-01  1.3797525369811E+00  4.4452869839358E-01
    31  3.0000000000000E-01  1.3972960741973E+00  4.5997476875923E-01
    32  3.1000000000000E-01  1.4121955526108E+00  4.7532376281512E-01
    33  3.2000000000000E-01  1.4244295709325E+00  4.9056143939188E-01
    34  3.3000000000000E-01  1.4339827632664E+00  5.0567376298469E-01
    35  3.4000000000000E-01  1.4408458726924E+00  5.2064702919740E-01
    36  3.5000000000000E-01  1.4450158079026E+00  5.3546798629794E-01
    37  3.6000000000000E-01  1.4464956821187E+00  5.5012395148221E-01
    38  3.7000000000000E-01  1.4452948335949E+00  5.6460292050324E-01
    39  3.8000000000000E-01  1.4414288270943E+00  5.7889366939828E-01
    40  3.9000000000000E-01  1.4349194358168E+00  5.9298584713632E-01
    41  4.0000000000000E-01  1.4257946033560E+00  6.0687005811239E-01
    42  4.1000000000000E-01  1.4140883853699E+00  6.2053793353153E-01
    43  4.2000000000000E-01  1.3998408707611E+00  6.3398219085265E-01
    44  4.3000000000000E-01  1.3830980822790E+00  6.4719668059991E-01
    45  4.4000000000000E-01  1.3639118565805E+00  6.6017641999495E-01
    46  4.5000000000000E-01  1.3423397039051E+00  6.7291761301496E-01
    47  4.6000000000000E-01  1.3184446476505E+00  6.8541765663882E-01
    48  4.7000000000000E-01  1.2922950442588E+00  6.9767513320308E-01
    49  4.8000000000000E-01  1.2639643839497E+00  7.0968978895080E-01
    50  4.9000000000000E-01  1.2335310729619E+00  7.2146249901618E-01
    51  5.0000000000000E-01  1.2010781980842E+00  7.3299521924599E-01
    52  5.1000000000000E-01  1.1666932743743E+00  7.4429092541161E-01
    53  5.2000000000000E-01  1.1304679770777E+00  7.5535354051311E-01
    54  5.3000000000000E-01  1.0924978588597E+00  7.6618785101530E-01
    55  5.4000000000000E-01  1.0528820535662E+00  7.7679941298570E-01
    56  5.5000000000000E-01  1.0117229678156E+00  7.8719444922268E-01
    57  5.6000000000000E-01  9.6912596180497E-01  7.9737973856781E-01
    58  5.7000000000000E-01  9.2519902078322E-01  8.0736249868880E-01
    59  5.8000000000000E-01  8.8005241870568E-01  8.1715026369658E-01
    60  5.9000000000000E-01  8.3379837562875E-01  8.2675075802154E-01
    61  6.0000000000000E-01  7.8655071044247E-01  8.3617176801857E-01
    62  6.1000000000000E-01  7.3842449056102E-01  8.4542101279858E-01
    63  6.2000000000000E-01  6.8953568020318E-01  8.5450601579383E-01
    64  6.3000000000000E-01  6.4000078889338E-01  8.6343397855732E-01
    65  6.4000000000000E-01  5.8993652180023E-01  8.7221165827070E-01
    66  6.5000000000000E-01  5.3945943350327E-01  8.8084525039319E-01
    67  6.6000000000000E-01  4.8868558674054E-01  8.8934027782361E-01
    68  6.7000000000000E-01  4.3773021763931E-01  8.9770148787264E-01
    69  6.8000000000000E-01  3.8670740887138E-01  9.0593275825028E-01
    70  6.9000000000000E-01  3.3572977210254E-01  9.1403701316834E-01
    71  7.0000000000000E-01  2.8490814102421E-01  9.2201615053871E-01
    72  7.1000000000000E-01  2.3435127616491E-01  9.2987098111734E-01
    73  7.2000000000000E-01  1.8416558258074E-01  9.3760118030319E-01
    74  7.3000000000000E-01  1.3445484141852E-01  9.4520525315149E-01
    75  7.4000000000000E-01  8.5319956234246E-02  9.5268051300441E-01
    76  7.5000000000000E-01  3.6858714833107E-02  9.6002307398053E-01
    77  7.6000000000000E-01 -1.0834432721872E-02  9.6722785740028E-01
    78  7.7000000000000E-01 -5.7668579407451E-02  9.7428861205830E-01
    79  7.8000000000000E-01 -1.0355654944182E-01  9.8119794808920E-01
    80  7.9000000000000E-01 -1.4841506911058E-01  9.8794738401101E-01
    81  8.0000000000000E-01 -1.9216492005872E-01  9.9452740637353E-01
    82  8.1000000000000E-01 -2.3473107500864E-01  1.0009275412879E+00
    83  8.2000000000000E-01 -2.7604281597912E-01  1.0071364369723E+00
    84  8.3000000000000E-01 -3.1603383518997E-01  1.0131419563168E+00
    85  8.4000000000000E-01 -3.5464231894073E-01  1.0189312783503E+00
    86  8.5000000000000E-01 -3.9181101484878E-01  1.0244910073873E+00
    87  8.6000000000000E-01 -4.2748728292134E-01  1.0298072885392E+00
    88  8.7000000000000E-01 -4.6162313101587E-01  1.0348659282008E+00
    89  8.8000000000000E-01 -4.9417523531500E-01  1.0396525180636E+00
    90  8.9000000000000E-01 -5.2510494650295E-01  1.0441525611654E+00
    91  9.0000000000000E-01 -5.5437828238169E-01  1.0483515984656E+00
    92  9.1000000000000E-01 -5.8196590770538E-01  1.0522353344287E+00
    93  9.2000000000000E-01 -6.0784310204145E-01  1.0557897601162E+00
    94  9.3000000000000E-01 -6.3198971648559E-01  1.0590012723180E+00
    95  9.4000000000000E-01 -6.5439012006614E-01  1.0618567873080E+00
    96  9.5000000000000E-01 -6.7503313667127E-01  1.0643438478775E+00
    97  9.6000000000000E-01 -6.9391197332015E-01  1.0664507223868E+00
    98  9.7000000000000E-01 -7.1102414057751E-01  1.0681664946776E+00
    99  9.8000000000000E-01 -7.2637136588014E-01  1.0694811438068E+00
   100  9.9000000000000E-01 -7.3995950050495E-01  1.0703856126931E+00
   101  1.0000000000000E+00 -7.5179842086175E-01  1.0708718649111E+00
   102  1.0100000000000E+00 -7.6190192474087E-01  1.0709329290190E+00
   103  1.0200000000000E+00 -7.7028762308732E-01  1.0705629299699E+00
   104  1.0300000000000E+00 -7.7697682781017E-01  1.0697571073217E+00
   105  1.0400000000000E+00 -7.8199443606946E-01  1.0685118201366E+00
   106  1.0500000000000E+00 -7.8536881141431E-01  1.0668245386304E+00
   107  1.0600000000000E+00 -7.8713166207666E-01  1.0646938228111E+00
   108  1.0700000000000E+00 -7.8731791665493E-01  1.0621192885166E+00
   109  1.0800000000000E+00 -7.8596559735439E-01  1.0591015614284E+00
   110  1.0900000000000E+00 -7.8311569088494E-01  1.0556422198023E+00
   111  1.1000000000000E+00 -7.7881201705486E-01  1.0517437268087E+00
   112  1.1100000000000E+00 -7.7310109504173E-01  1.0474093535182E+00
   113  1.1200000000000E+00 -7.6603200726973E-01  1.0426430936997E+00
   114  1.1300000000000E+00 -7.5765626077712E-01  1.0374495717134E+00
   115  1.1400000000000E+00 -7.4802764591969E-01  1.0318339448838E+00
   116  1.1500000000000E+00 -7.3720209222610E-01  1.0258018018197E+00
   117  1.1600000000000E+00 -7.2523752119952E-01  1.0193590582175E+00
   118  1.1700000000000E+00 -7.1219369584795E-01  1.0125118517262E+00
   119  1.1800000000000E+00 -6.9813206672280E-01  1.0052664374858E+00
   120  1.1900000000000E+00 -6.8311561425208E-01  9.9762908595042E-01
   121  1.2000000000000E+00 -6.6720868717159E-01  9.8960598460092E-01
   122  1.2100000000000E+00 -6.5047683688340E-01  9.8120314511081E-01
   123  1.2200000000000E+00 -6.3298664760674E-01  9.7242631747970E-01
   124  1.2300000000000E+00 -6.1480556223137E-01  9.6328091257058E-01
   125  1.2400000000000E+00 -5.9600170383652E-01  9.5377193439559E-01
   126  1.2500000000000E+00 -5.7664369289979E-01  9.4390392338214E-01
   127  1.2600000000000E+00 -5.5680046028892E-01  9.3368091172332E-01
   128  1.2700000000000E+00 -5.3654105620341E-01  9.2310639177266E-01
   129  1.2800000000000E+00 -5.1593445531342E-01  9.1218329828512E-01
   130  1.2900000000000E+00 -4.9504935842683E-01  9.0091400513716E-01
   131  1.3000000000000E+00 -4.7395399110246E-01  8.8930033697912E-01
   132  1.3100000000000E+00 -4.5271589971629E-01  8.7734359608552E-01
   133  1.3200000000000E+00 -4.3140174557643E-01  8.6504460447617E-01
   134  1.3300000000000E+00 -4.1007709777085E-01  8.5240376118527E-01
   135  1.3400000000000E+00 -3.8880622551808E-01  8.3942111435813E-01
   136  1.3500000000000E+00 -3.6765189087324E-01  8.2609644765988E-01
   137  1.3600000000000E+00 -3.4667514271951E-01  8.1242938028936E-01
   138  1.3700000000000E+00 -3.2593511304592E-01  7.9841947970663E-01
   139  1.3800000000000E+00 -3.0548881657669E-01  7.8406638600536E-01
   140  1.3900000000000E+00 -2.8539095487173E-01  7.6936994669705E-01
   141  1.4000000000000E+00 -2.6569372606384E-01  7.5433036052097E-01
   142  1.4100000000000E+00 -2.4644664143178E-01  7.3894832875754E-01
   143  1.4200000000000E+00 -2.2769635003193E-01  7.2322521240164E-01
   144  1.4300000000000E+00 -2.0948647262103E-01  7.0716319345125E-01
   145  1.4400000000000E+00 -1.9185744609984E-01  6.9076543848522E-01
   146  1.4500000000000E+00 -1.7484637969126E-01  6.7403626264291E-01
   147  1.4600000000000E+00 -1.5848692403609E-01  6.5698129208051E-01
   148  1.4700000000000E+00 -1.4280915434553E-01  6.3960762296288E-01
   149  1.4800000000000E+00 -1.2783946869094E-01  6.2192397505733E-01
   150  1.4900000000000E+00 -1.1360050243945E-01  6.0394083802655E-01
   151  1.5000000000000E+00 -1.0011105975836E-01  5.8567060857223E-01
   152  1.5100000000000E+00 -8.7386063012539E-02  5.6712771665722E-01
   153  1.5200000000000E+00 -7.5436520768489E-02  5.4832873913326E-01
   154  1.5300000000000E+00 -6.4269514995996E-02  5.2929249922146E-01
   155  1.5400000000000E+00 -5.3888207926453E-02  5.1004015043155E-01
   156  1.5500000000000E+00 -4.4291868884150E-02  4.9059524366535E-01
   157  1.5600000000000E+00 -3.5475921257642E-02  4.7098377642380E-01
   158  1.5700000000000E+00 -2.7432009621654E-02  4.5123422322670E-01
   159  1.5800000000000E+00 -2.0148086858590E-02  4.3137754655667E-01
   160  1.5900000000000E+00 -1.3608520963849E-02  4.1144718785093E-01
   161  1.6000000000000E+00 -7.7942210524436E-03  3.9147903828542E-01
   162  1.6100000000000E+00 -2.6827819176538E-03  3.7151138932133E-01
   163  1.6200000000000E+00  1.7513536726012E-03  3.5158486321257E-01
   164  1.6300000000000E+00  5.5367159176678E-03  3.3174232390208E-01
   165  1.6400000000000E+00  8.7046132968406E-03  3.1202876896030E-01
   166  1.6500000000000E+00  1.1288923534855E-02  2.9249120344072E-01
   167  1.6600000000000E+00  1.3325871643335E-02  2.7317849674054E-01
   168  1.6700000000000E+00  1.4853796592131E-02  2.5414122375673E-01
   169  1.6800000000000E+00  1.5912908345551E-02  2.3543149195874E-01
   170  1.6900000000000E+00  1.6545036986937E-02  2.1710275588462E-01
   171  1.7000000000000E+00  1.6793372595397E-02  1.9920961377404E-01
   172  1.7100000000000E+00  1.6702192239227E-02  1.8180757509842E-01
   173  1.7200000000000E+00  1.6316091134998E-02  1.6495171429234E-01
   174  1.7300000000000E+00  1.5679066167115E-02  1.4869504986466E-01
   175  1.7400000000000E+00  1.4834084992807E-02  1.3308805657038E-01
   176  1.7500000000000E+00  1.3822803080800E-02  1.1817850050185E-01
   177  1.7600000000000E+00  1.2685271531069E-02  1.0401123207960E-01
   178  1.7700000000000E+00  1.1459660090872E-02  9.0627991602175E-02
   179  1.7800000000000E+00  1.0181994313503E-02  7.8067225473153E-02
   180  1.7900000000000E+00  8.8859000968505E-03  6.6363868350794E-02
   181  1.8000000000000E+00  7.6023949726612E-03  5.5549292719375E-02
   182  1.8100000000000E+00  6.3596247041930E-03  4.5650922909724E-02
   183  1.8200000000000E+00  5.1820900668266E-03  3.6688619351863E-02
   184  1.8300000000000E+00  4.0910927227582E-03  2.8677773829659E-02
   185  1.8400000000000E+00  3.1059253596914E-03  2.1637172574034E-02
   186  1.8500000000000E+00  2.2421642811066E-03  1.5580470952048E-02
   187  1.8600000000000E+00  1.5116776080210E-03  1.0516566026387E-02
   188  1.8700000000000E+00  9.2255384875684E-04  6.4494883216536E-03
   189  1.8800000000000E+00  4.7924347864044E-04  3.3797023968672E-03
   190  1.8900000000000E+00  1.8054722372395E-04  1.2891467844591E-03
   191  1.9000000000000E+00  3.0672938453943E-05  2.2294030887625E-04
   192  1.9100000000000E+00 -4.0313763878000E-06 -2.9588703101766E-05
   193  1.9200000000000E+00  8.3135925271250E-07  6.0509591385071E-06
   194  1.9300 -0. -0.
   195  1.9400 -0. -0.
   196  1.9500 -0. -0.
   197  1.9600  0.  0.
   198  1.9700  0.  0.
   199  1.9800  0.  0.
   200  1.9900  0.  0.
   201  2.0000  0.  0.
   202  2.0100  0.  0.
   203  2.0200  0.  0.
   204  2.0300  0.  0.
   205  2.0400  0.  0.
   206  2.0500  0.  0.
   207  2.0600  0.  0.
   208  2.0700  0.  0.
   209  2.0800  0.  0.
   210  2.0900  0.  0.
   211  2.1000  0.  0.
   212  2.1100  0.  0.
   213  2.1200  0.  0.
   214  2.1300  0.  0.
   215  2.1400  0.  0.
   216  2.1500  0.  0.
   217  2.1600  0.  0.
   218  2.1700  0.  0.
   219  2.1800  0.  0.
   220  2.1900  0.  0.
   221  2.2000  0.  0.
   222  2.2100  0.  0.
   223  2.2200  0.  0.
   224  2.2300  0.  0.
   225  2.2400  0.  0.
   226  2.2500  0.  0.
   227  2.2600  0.  0.
   228  2.2700  0.  0.
   229  2.2800  0.  0.
   230  2.2900  0.  0.
   231  2.3000  0.  0.
   232  2.3100  0.  0.
   233  2.3200  0.  0.
   234  2.3300  0.  0.
   235  2.3400  0.  0.
   236  2.3500  0.  0.
   237  2.3600  0.  0.
   238  2.3700  0.  0.
   239  2.3800  0.  0.
   240  2.3900  0.  0.
   241  2.4000  0.  0.
   242  2.4100  0.  0.
   243  2.4200  0.  0.
   244  2.4300  0.  0.
   245  2.4400  0.  0.
   246  2.4500  0.  0.
   247  2.4600  0.  0.
   248  2.4700  0.  0.
   249  2.4800  0.  0.
   250  2.4900  0.  0.
   251  2.5000  0.  0.
   252  2.5100  0.  0.
   253  2.5200  0.  0.
   254  2.5300  0.  0.
   255  2.5400  0.  0.
   256  2.5500  0.  0.
   257  2.5600  0.  0.
   258  2.5700  0.  0.
   259  2.5800  0.  0.
   260  2.5900  0.  0.
   261  2.6000  0.  0.
   262  2.6100  0.  0.
   263  2.6200  0.  0.
   264  2.6300  0.  0.
   265  2.6400  0.  0.
   266  2.6500  0.  0.
   267  2.6600  0.  0.
   268  2.6700  0.  0.
   269  2.6800  0.  0.
   270  2.6900  0.  0.
   271  2.7000  0.  0.
   272  2.7100  0.  0.
   273  2.7200  0.  0.
   274  2.7300  0.  0.
   275  2.7400  0.  0.
   276  2.7500  0.  0.
   277  2.7600  0.  0.
   278  2.7700  0.  0.
   279  2.7800  0.  0.
   280  2.7900  0.  0.
   281  2.8000  0.  0.
   282  2.8100  0.  0.
   283  2.8200  0.  0.
   284  2.8300  0.  0.
   285  2.8400  0.  0.
   286  2.8500  0.  0.
   287  2.8600  0.  0.
   288  2.8700  0.  0.
   289  2.8800  0.  0.
   290  2.8900  0.  0.
   291  2.9000  0.  0.
   292  2.9100  0.  0.
   293  2.9200  0.  0.
   294  2.9300  0.  0.
   295  2.9400  0.  0.
   296  2.9500  0.  0.
   297  2.9600  0.  0.
   298  2.9700  0.  0.
   299  2.9800  0.  0.
   300  2.9900  0.  0.
   301  3.0000  0.  0.
   302  3.0100  0.  0.
   303  3.0200  0.  0.
   304  3.0300  0.  0.
   305  3.0400  0.  0.
   306  3.0500  0.  0.
   307  3.0600  0.  0.
   308  3.0700  0.  0.
   309  3.0800  0.  0.
   310  3.0900  0.  0.
   311  3.1000  0.  0.
   312  3.1100  0.  0.
   313  3.1200  0.  0.
   314  3.1300  0.  0.
   315  3.1400  0.  0.
   316  3.1500  0.  0.
   317  3.1600  0.  0.
   318  3.1700  0.  0.
   319  3.1800  0.  0.
   320  3.1900  0.  0.
   321  3.2000  0.  0.
   322  3.2100  0.  0.
   323  3.2200  0.  0.
   324  3.2300  0.  0.
   325  3.2400  0.  0.
   326  3.2500  0.  0.
   327  3.2600  0.  0.
   328  3.2700  0.  0.
   329  3.2800  0.  0.
   330  3.2900  0.  0.
   331  3.3000  0.  0.
   332  3.3100  0.  0.
   333  3.3200  0.  0.
   334  3.3300  0.  0.
   335  3.3400  0.  0.
   336  3.3500  0.  0.
   337  3.3600  0.  0.
   338  3.3700  0.  0.
   339  3.3800  0.  0.
   340  3.3900  0.  0.
   341  3.4000  0.  0.
   342  3.4100  0.  0.
   343  3.4200  0.  0.
   344  3.4300  0.  0.
   345  3.4400  0.  0.
   346  3.4500  0.  0.
   347  3.4600  0.  0.
   348  3.4700  0.  0.
   349  3.4800  0.  0.
   350  3.4900  0.  0.
   351  3.5000  0.  0.
   352  3.5100  0.  0.
   353  3.5200  0.  0.
   354  3.5300  0.  0.
   355  3.5400  0.  0.
   356  3.5500  0.  0.
   357  3.5600  0.  0.
   358  3.5700  0.  0.
   359  3.5800  0.  0.
   360  3.5900  0.  0.
   361  3.6000  0.  0.
   362  3.6100  0.  0.
   363  3.6200  0.  0.
   364  3.6300  0.  0.
   365  3.6400  0.  0.
   366  3.6500  0.  0.
   367  3.6600  0.  0.
   368  3.6700  0.  0.
   369  3.6800  0.  0.
   370  3.6900  0.  0.
   371  3.7000  0.  0.
   372  3.7100  0.  0.
   373  3.7200  0.  0.
   374  3.7300  0.  0.
   375  3.7400  0.  0.
   376  3.7500  0.  0.
   377  3.7600  0.  0.
   378  3.7700  0.  0.
   379  3.7800  0.  0.
   380  3.7900  0.  0.
   381  3.8000  0.  0.
   382  3.8100  0.  0.
   383  3.8200  0.  0.
   384  3.8300  0.  0.
   385  3.8400  0.  0.
   386  3.8500  0.  0.
   387  3.8600  0.  0.
   388  3.8700  0.  0.
   389  3.8800  0.  0.
   390  3.8900  0.  0.
   391  3.9000  0.  0.
   392  3.9100  0.  0.
   393  3.9200  0.  0.
   394  3.9300  0.  0.
   395  3.9400  0.  0.
   396  3.9500  0.  0.
   397  3.9600  0.  0.
   398  3.9700  0.  0.
   399  3.9800  0.  0.
   400  3.9900  0.  0.
   401  4.0000  0.  0.
   402  4.0100  0.  0.
   403  4.0200  0.  0.
   404  4.0300  0.  0.
   405  4.0400  0.  0.
   406  4.0500  0.  0.
   407  4.0600  0.  0.
   408  4.0700  0.  0.
   409  4.0800  0.  0.
   410  4.0900  0.  0.
   411  4.1000  0.  0.
   412  4.1100  0.  0.
   413  4.1200  0.  0.
   414  4.1300  0.  0.
   415  4.1400  0.  0.
   416  4.1500  0.  0.
   417  4.1600  0.  0.
   418  4.1700  0.  0.
   419  4.1800  0.  0.
   420  4.1900  0.  0.
   421  4.2000  0.  0.
   422  4.2100  0.  0.
   423  4.2200  0.  0.
   424  4.2300  0.  0.
   425  4.2400  0.  0.
   426  4.2500  0.  0.
   427  4.2600  0.  0.
   428  4.2700  0.  0.
   429  4.2800  0.  0.
   430  4.2900  0.  0.
   431  4.3000  0.  0.
   432  4.3100  0.  0.
   433  4.3200  0.  0.
   434  4.3300  0.  0.
   435  4.3400  0.  0.
   436  4.3500  0.  0.
   437  4.3600  0.  0.
   438  4.3700  0.  0.
   439  4.3800  0.  0.
   440  4.3900  0.  0.
   441  4.4000  0.  0.
   442  4.4100  0.  0.
   443  4.4200  0.  0.
   444  4.4300  0.  0.
   445  4.4400  0.  0.
   446  4.4500  0.  0.
   447  4.4600  0.  0.
   448  4.4700  0.  0.
   449  4.4800  0.  0.
   450  4.4900  0.  0.
   451  4.5000  0.  0.
   452  4.5100  0.  0.
   453  4.5200  0.  0.
   454  4.5300  0.  0.
   455  4.5400  0.  0.
   456  4.5500  0.  0.
   457  4.5600  0.  0.
   458  4.5700  0.  0.
   459  4.5800  0.  0.
   460  4.5900  0.  0.
   461  4.6000  0.  0.
   462  4.6100  0.  0.
   463  4.6200  0.  0.
   464  4.6300  0.  0.
   465  4.6400  0.  0.
   466  4.6500  0.  0.
   467  4.6600  0.  0.
   468  4.6700  0.  0.
   469  4.6800  0.  0.
   470  4.6900  0.  0.
   471  4.7000  0.  0.
   472  4.7100  0.  0.
   473  4.7200  0.  0.
   474  4.7300  0.  0.
   475  4.7400  0.  0.
   476  4.7500  0.  0.
   477  4.7600  0.  0.
   478  4.7700  0.  0.
   479  4.7800  0.  0.
   480  4.7900  0.  0.
   481  4.8000  0.  0.
   482  4.8100  0.  0.
   483  4.8200  0.  0.
   484  4.8300  0.  0.
   485  4.8400  0.  0.
   486  4.8500  0.  0.
   487  4.8600  0.  0.
   488  4.8700  0.  0.
   489  4.8800  0.  0.
   490  4.8900  0.  0.
   491  4.9000  0.  0.
   492  4.9100  0.  0.
   493  4.9200  0.  0.
   494  4.9300  0.  0.
   495  4.9400  0.  0.
   496  4.9500  0.  0.
   497  4.9600  0.  0.
   498  4.9700  0.  0.
   499  4.9800  0.  0.
   500  4.9900  0.  0.
   501  5.0000  0.  0.
   502  5.0100  0.  0.
   503  5.0200  0.  0.
   504  5.0300  0.  0.
   505  5.0400  0.  0.
   506  5.0500  0.  0.
   507  5.0600  0.  0.
   508  5.0700  0.  0.
   509  5.0800  0.  0.
   510  5.0900  0.  0.
   511  5.1000  0.  0.
   512  5.1100  0.  0.
   513  5.1200  0.  0.
   514  5.1300  0.  0.
   515  5.1400  0.  0.
   516  5.1500  0.  0.
   517  5.1600  0.  0.
   518  5.1700  0.  0.
   519  5.1800  0.  0.
   520  5.1900  0.  0.
   521  5.2000  0.  0.
   522  5.2100  0.  0.
   523  5.2200  0.  0.
   524  5.2300  0.  0.
   525  5.2400  0.  0.
   526  5.2500  0.  0.
   527  5.2600  0.  0.
   528  5.2700  0.  0.
   529  5.2800  0.  0.
   530  5.2900  0.  0.
   531  5.3000  0.  0.
   532  5.3100  0.  0.
   533  5.3200  0.  0.
   534  5.3300  0.  0.
   535  5.3400  0.  0.
   536  5.3500  0.  0.
   537  5.3600  0.  0.
   538  5.3700  0.  0.
   539  5.3800  0.  0.
   540  5.3900  0.  0.
   541  5.4000  0.  0.
   542  5.4100  0.  0.
   543  5.4200  0.  0.
   544  5.4300  0.  0.
   545  5.4400  0.  0.
   546  5.4500  0.  0.
   547  5.4600  0.  0.
   548  5.4700  0.  0.
   549  5.4800  0.  0.
   550  5.4900  0.  0.
   551  5.5000  0.  0.
   552  5.5100  0.  0.
   553  5.5200  0.  0.
   554  5.5300  0.  0.
   555  5.5400  0.  0.
   556  5.5500  0.  0.
   557  5.5600  0.  0.
   558  5.5700  0.  0.
   559  5.5800  0.  0.
   560  5.5900  0.  0.
   561  5.6000  0.  0.
   562  5.6100  0.  0.
   563  5.6200  0.  0.
   564  5.6300  0.  0.
   565  5.6400  0.  0.
   566  5.6500  0.  0.
   567  5.6600  0.  0.
   568  5.6700  0.  0.
   569  5.6800  0.  0.
   570  5.6900  0.  0.
   571  5.7000  0.  0.
   572  5.7100  0.  0.
   573  5.7200  0.  0.
   574  5.7300  0.  0.
   575  5.7400  0.  0.
   576  5.7500  0.  0.
   577  5.7600  0.  0.
   578  5.7700  0.  0.
   579  5.7800  0.  0.
   580  5.7900  0.  0.
   581  5.8000  0.  0.
   582  5.8100  0.  0.
   583  5.8200  0.  0.
   584  5.8300  0.  0.
   585  5.8400  0.  0.
   586  5.8500  0.  0.
   587  5.8600  0.  0.
   588  5.8700  0.  0.
   589  5.8800  0.  0.
   590  5.8900  0.  0.
   591  5.9000  0.  0.
   592  5.9100  0.  0.
   593  5.9200  0.  0.
   594  5.9300  0.  0.
   595  5.9400  0.  0.
   596  5.9500  0.  0.
   597  5.9600  0.  0.
   598  5.9700  0.  0.
   599  5.9800  0.  0.
   600  5.9900  0.  0.
   1                         1.2424669598686E+00 -7.5740171877295E-01
     1  0.0000000000000E+00  1.5935348873786E-10 -5.4841844607245E-11
     2  1.0000000000000E-02  1.3476418681465E-03  1.4284070089557E-04
     3  2.0000000000000E-02  5.3853840617916E-03  5.7209787159605E-04
     4  3.0000000000000E-02  1.2097696274507E-02  1.2899714222113E-03
     5  4.0000000000000E-02  2.1458760999311E-02  2.3001102516734E-03
     6  5.0000000000000E-02  3.3432572745269E-02  3.6075859203236E-03
     7  6.0000000000000E-02  4.7973076363870E-02  5.2188559900514E-03
     8  7.0000000000000E-02  6.5024343911496E-02  7.1417172290847E-03
     9  8.0000000000000E-02  8.4520789314955E-02  9.3852489333725E-03
    10  9.0000000000000E-02  1.0638741995055E-01  1.1959746669513E-02
    11  1.0000000000000E-01  1.3054012409537E-01  1.4876646796042E-02
    12  1.1000000000000E-01  1.5688599306171E-01  1.8148442169656E-02
    13  1.2000000000000E-01  1.8532367668351E-01  2.1788589490641E-02
    14  1.3000000000000E-01  2.1574377068767E-01  2.5811408787148E-02
    15  1.4000000000000E-01  2.4802923435306E-01  3.0231975580687E-02
    16  1.5000000000000E-01  2.8205583673836E-01  3.5066006315152E-02
    17  1.6000000000000E-01  3.1769262964423E-01  4.0329737668554E-02
    18  1.7000000000000E-01  3.5480244536960E-01  4.6039800400379E-02
    19  1.8000000000000E-01  3.9324241722337E-01  5.2213088417649E-02
    20  1.9000000000000E-01  4.3286452066430E-01  5.8866623769713E-02
    21  2.0000000000000E-01  4.7351613286244E-01  6.6017418304594E-02
    22  2.1000000000000E-01  5.1504060840577E-01  7.3682332739199E-02
    23  2.2000000000000E-01  5.5727786881647E-01  8.1877933910898E-02
    24  2.3000000000000E-01  6.0006500349154E-01  9.0620350989430E-02
    25  2.4000000000000E-01  6.4323687964446E-01  9.9925131435411E-02
    26  2.5000000000000E-01  6.8662675879581E-01  1.0980709749499E-01
    27  2.6000000000000E-01  7.3006691734383E-01  1.2028020401940E-01
    28  2.7000000000000E-01  7.7338926873929E-01  1.3135739839327E-01
    29  2.8000000000000E-01  8.1642598479279E-01  1.4305048334663E-01
    30  2.9000000000000E-01  8.5901011365800E-01  1.5536998341251E-01
    31  3.0000000000000E-01  9.0097619205915E-01  1.6832501577552E-01
    32  3.1000000000000E-01  9.4216084936728E-01  1.8192316623554E-01
    33  3.2000000000000E-01  9.8240340117561E-01  1.9617037098684E-01
    34  3.3000000000000E-01  1.0215464300799E+00  2.1107080488453E-01
    35  3.4000000000000E-01  1.0594363514363E+00  2.2662677683889E-01
    36  3.5000000000000E-01  1.0959239619419E+00  2.4283863294352E-01
    37  3.6000000000000E-01  1.1308649689699E+00  2.5970466790522E-01
    38  3.7000000000000E-01  1.1641204986803E+00  2.7722104530294E-01
    39  3.8000000000000E-01  1.1955575810292E+00  2.9538172715953E-01
    40  3.9000000000000E-01  1.2250496099074E+00  3.1417841326444E-01
    41  4.0000000000000E-01  1.2524767767511E+00  3.3360049063700E-01
    42  4.1000000000000E-01  1.2777264760929E+00  3.5363499347032E-01
    43  4.2000000000000E-01  1.3006936816434E+00  3.7426657384351E-01
    44  4.3000000000000E-01  1.3212812916285E+00  3.9547748343731E-01
    45  4.4000000000000E-01  1.3394004422433E+00  4.1724756643319E-01
    46  4.5000000000000E-01  1.3549707882229E+00  4.3955426372126E-01
    47  4.6000000000000E-01  1.3679207496755E+00  4.6237262848592E-01
    48  4.7000000000000E-01  1.3781877244686E+00  4.8567535318236E-01
    49  4.8000000000000E-01  1.3857182656061E+00  5.0943280786060E-01
    50  4.9000000000000E-01  1.3904682231844E+00  5.3361308973764E-01
    51  5.0000000000000E-01  1.3924028506659E+00  5.5818208386308E-01
    52  5.1000000000000E-01  1.3914968753544E+00  5.8310353466870E-01
    53  5.2000000000000E-01  1.3877345331106E+00  6.0833912813909E-01
    54  5.3000000000000E-01  1.3811095674864E+00  6.3384858428799E-01
    55  5.4000000000000E-01  1.3716251936079E+00  6.5958975957481E-01
    56  5.5000000000000E-01  1.3592940272733E+00  6.8551875884658E-01
    57  5.6000000000000E-01  1.3441379798746E+00  7.1159005634449E-01
    58  5.7000000000000E-01  1.3261881198827E+00  7.3775662526955E-01
    59  5.8000000000000E-01  1.3054845017679E+00  7.6397007536036E-01
    60  5.9000000000000E-01  1.2820759633504E+00  7.9018079789710E-01
    61  6.0000000000000E-01  1.2560198926955E+00  8.1633811750972E-01
    62  6.1000000000000E-01  1.2273819657788E+00  8.4239045013550E-01
    63  6.2000000000000E-01  1.1962358562546E+00  8.6828546644162E-01
    64  6.3000000000000E-01  1.1626629187592E+00  8.9397026000212E-01
    65  6.4000000000000E-01  1.1267518472698E+00  9.1939151949593E-01
    66  6.5000000000000E-01  1.0885983101270E+00  9.4449570417376E-01
    67  6.6000000000000E-01  1.0483045634017E+00  9.6922922182624E-01
    68  6.7000000000000E-01  1.0059790443557E+00  9.9353860847413E-01
    69  6.8000000000000E-01  9.6173594680374E-01  1.0173707089938E+00
    70  6.9000000000000E-01  9.1569478023507E-01  1.0406728578872E+00
    71  7.0000000000000E-01  8.6797991459406E-01  1.0633930594057E+00
    72  7.1000000000000E-01  8.1872011265131E-01  1.0854801662404E+00
    73  7.2000000000000E-01  7.6804805192115E-01  1.1068840560000E+00
    74  7.3000000000000E-01  7.1609983809566E-01  1.1275558047080E+00
    75  7.4000000000000E-01  6.6301451197177E-01  1.1474478565660E+00
    76  7.5000000000000E-01  6.0893355184480E-01  1.1665141892482E+00
    77  7.6000000000000E-01  5.5400037333102E-01  1.1847104740158E+00
    78  7.7000000000000E-01  4.9835982856212E-01  1.2019942299622E+00
    79  7.8000000000000E-01  4.4215770666642E-01  1.2183249717319E+00
    80  7.9000000000000E-01  3.8554023741653E-01  1.2336643500858E+00
    81  8.0000000000000E-01  3.2865359987954E-01  1.2479762847187E+00
    82  8.1000000000000E-01  2.7164343785563E-01  1.2612270887754E+00
    83  8.2000000000000E-01  2.1465438383352E-01  1.2733855845485E+00
    84  8.3000000000000E-01  1.5782959312723E-01  1.2844232098831E+00
    85  8.4000000000000E-01  1.0131028978900E-01  1.2943141148589E+00
    86  8.5000000000000E-01  4.5235325817120E-02  1.3030352483652E+00
    87  8.6000000000000E-01 -1.0259244902978E-02  1.3105664342307E+00
    88  8.7000000000000E-01 -6.5040576571713E-02  1.3168904366197E+00
    89  8.8000000000000E-01 -1.1897942409952E-01  1.3219930144560E+00
    90  8.9000000000000E-01 -1.7195051721273E-01  1.3258629646853E+00
    91  9.0000000000000E-01 -2.2383291496835E-01  1.3284921542395E+00
    92  9.1000000000000E-01 -2.7451033970421E-01  1.3298755406159E+00
    93  9.2000000000000E-01 -3.2387148955269E-01  1.3300111810381E+00
    94  9.3000000000000E-01 -3.7181032874893E-01  1.3289002302142E+00
    95  9.4000000000000E-01 -4.1822635506918E-01  1.3265469267609E+00