Tl    ONCVPSP-4.0.1  r_core=   3.00237   3.20658   3.00237
     81.0000     13.0000      210704    zatom,zion,pspd
     8      11   2     4   600     0    pspcod,pspxc,lmax,lloc,mmax,r2well
  5.99000000  7.00000000  0.00000000    rchrg fchrg qchrg
     2     2     2     0     0    nproj
     1     1           extension_switch
   0                         4.6783990196622E+00  7.3354887654482E-01
     1  0.0000000000000E+00 -6.2588823013243E-13  1.5434320488339E-12
     2  1.0000000000000E-02  2.1645420243730E-02 -1.2022158914088E-02
     3  2.0000000000000E-02  4.3278224918688E-02 -2.4021292548093E-02
     4  3.0000000000000E-02  6.4885820729495E-02 -3.5974431557875E-02
     5  4.0000000000000E-02  8.6455658863331E-02 -4.7858718311542E-02
     6  5.0000000000000E-02  1.0797525707082E-01 -5.9651462346857E-02
     7  6.0000000000000E-02  1.2943222155489E-01 -7.1330195351273E-02
     8  7.0000000000000E-02  1.5081426860425E-01 -8.2872725507252E-02
     9  8.0000000000000E-02  1.7210924590892E-01 -9.4257191047098E-02
    10  9.0000000000000E-02  1.9330515349587E-01 -1.0546211286343E-01
    11  1.0000000000000E-01  2.1439016422372E-01 -1.1646644602373E-01
    12  1.1000000000000E-01  2.3535264377680E-01 -1.2724963004009E-01
    13  1.2000000000000E-01  2.5618117009971E-01 -1.3779163774832E-01
    14  1.3000000000000E-01  2.7686455221530E-01 -1.4807302265407E-01
    15  1.4000000000000E-01  2.9739184837020E-01 -1.5807496460727E-01
    16  1.5000000000000E-01  3.1775238345393E-01 -1.6777931367064E-01
    17  1.6000000000000E-01  3.3793576563937E-01 -1.7716863205208E-01
    18  1.7000000000000E-01  3.5793190219429E-01 -1.8622623397632E-01
    19  1.8000000000000E-01  3.7773101441599E-01 -1.9493622337562E-01
    20  1.9000000000000E-01  3.9732365164301E-01 -2.0328352928567E-01
    21  2.0000000000000E-01  4.1670070430057E-01 -2.1125393883814E-01
    22  2.1000000000000E-01  4.3585341593885E-01 -2.1883412774798E-01
    23  2.2000000000000E-01  4.5477339422589E-01 -2.2601168819993E-01
    24  2.3000000000000E-01  4.7345262085955E-01 -2.3277515404563E-01
    25  2.4000000000000E-01  4.9188346036630E-01 -2.3911402322985E-01
    26  2.5000000000000E-01  5.1005866775708E-01 -2.4501877737192E-01
    27  2.6000000000000E-01  5.2797139501428E-01 -2.5048089843610E-01
    28  2.7000000000000E-01  5.4561519638655E-01 -2.5549288243258E-01
    29  2.8000000000000E-01  5.6298403247211E-01 -2.6004825009926E-01
    30  2.9000000000000E-01  5.8007227307422E-01 -2.6414155452258E-01
    31  3.0000000000000E-01  5.9687469881644E-01 -2.6776838566484E-01
    32  3.1000000000000E-01  6.1338650150872E-01 -2.7092537177391E-01
    33  3.2000000000000E-01  6.2960328325923E-01 -2.7361017766046E-01
    34  3.3000000000000E-01  6.4552105433068E-01 -2.7582149983739E-01
    35  3.4000000000000E-01  6.6113622974364E-01 -2.7755905852481E-01
    36  3.5000000000000E-01  6.7644562463346E-01 -2.7882358653418E-01
    37  3.6000000000000E-01  6.9144644837122E-01 -2.7961681505432E-01
    38  3.7000000000000E-01  7.0613629746330E-01 -2.7994145637174E-01
    39  3.8000000000000E-01  7.2051314724809E-01 -2.7980118356762E-01
    40  3.9000000000000E-01  7.3457534241242E-01 -2.7920060724326E-01
    41  4.0000000000000E-01  7.4832158635444E-01 -2.7814524933566E-01
    42  4.1000000000000E-01  7.6175092942363E-01 -2.7664151409448E-01
    43  4.2000000000000E-01  7.7486275607257E-01 -2.7469665630137E-01
    44  4.3000000000000E-01  7.8765677095936E-01 -2.7231874682192E-01
    45  4.4000000000000E-01  8.0013298404309E-01 -2.6951663559013E-01
    46  4.5000000000000E-01  8.1229169471911E-01 -2.6629991213419E-01
    47  4.6000000000000E-01  8.2413347504420E-01 -2.6267886376188E-01
    48  4.7000000000000E-01  8.3565915210576E-01 -2.5866443153201E-01
    49  4.8000000000000E-01  8.4686978959261E-01 -2.5426816414760E-01
    50  4.9000000000000E-01  8.5776666862845E-01 -2.4950216991404E-01
    51  5.0000000000000E-01  8.6835126793250E-01 -2.4437906691415E-01
    52  5.1000000000000E-01  8.7862524337485E-01 -2.3891193155889E-01
    53  5.2000000000000E-01  8.8859040699731E-01 -2.3311424568022E-01
    54  5.3000000000000E-01  8.9824870557326E-01 -2.2699984233910E-01
    55  5.4000000000000E-01  9.0760219878274E-01 -2.2058285052802E-01
    56  5.5000000000000E-01  9.1665303708149E-01 -2.1387763895327E-01
    57  5.6000000000000E-01  9.2540343934482E-01 -2.0689875908750E-01
    58  5.7000000000000E-01  9.3385567036946E-01 -1.9966088768791E-01
    59  5.8000000000000E-01  9.4201201831791E-01 -1.9217876897942E-01
    60  5.9000000000000E-01  9.4987477219184E-01 -1.8446715670623E-01
    61  6.0000000000000E-01  9.5744619942185E-01 -1.7654075625761E-01
    62  6.1000000000000E-01  9.6472852366229E-01 -1.6841416707646E-01
    63  6.2000000000000E-01  9.7172390288025E-01 -1.6010182556078E-01
    64  6.3000000000000E-01  9.7843440782835E-01 -1.5161794866900E-01
    65  6.4000000000000E-01  9.8486200099107E-01 -1.4297647844055E-01
    66  6.5000000000000E-01  9.9100851609409E-01 -1.3419102764250E-01
    67  6.6000000000000E-01  9.9687563826533E-01 -1.2527482675179E-01
    68  6.7000000000000E-01  1.0024648849361E+00 -1.1624067248080E-01
    69  6.8000000000000E-01  1.0077775875690E+00 -1.0710087805111E-01
    70  6.9000000000000E-01  1.0128148742974E+00 -9.7867225416715E-02
    71  7.0000000000000E-01  1.0175776535609E+00 -8.8550919633944E-02
    72  7.1000000000000E-01  1.0220665988167E+00 -7.9162545569946E-02
    73  7.2000000000000E-01  1.0262821344065E+00 -6.9712027135994E-02
    74  7.3000000000000E-01  1.0302244226540E+00 -6.0208589225040E-02
    75  7.4000000000000E-01  1.0338933522651E+00 -5.0660722525801E-02
    76  7.5000000000000E-01  1.0372885281013E+00 -4.1076151377259E-02
    77  7.6000000000000E-01  1.0404092623887E+00 -3.1461804818822E-02
    78  7.7000000000000E-01  1.0432545674254E+00 -2.1823790981596E-02
    79  7.8000000000000E-01  1.0458231498430E+00 -1.2167374956018E-02
    80  7.9000000000000E-01  1.0481134064725E+00 -2.4969602601721E-03
    81  8.0000000000000E-01  1.0501234218625E+00  7.1839259786575E-03
    82  8.1000000000000E-01  1.0518509674897E+00  1.6872644028811E-02
    83  8.2000000000000E-01  1.0532935026959E+00  2.6567448657867E-02
    84  8.3000000000000E-01  1.0544481773830E+00  3.6267492260906E-02
    85  8.4000000000000E-01  1.0553118364875E+00  4.5972823953165E-02
    86  8.5000000000000E-01  1.0558810262515E+00  5.5684384581212E-02
    87  8.6000000000000E-01  1.0561520023008E+00  6.5403997621439E-02
    88  8.7000000000000E-01  1.0561207395342E+00  7.5134355949978E-02
    89  8.8000000000000E-01  1.0557829438188E+00  8.4879004483568E-02
    90  8.9000000000000E-01  1.0551340654837E+00  9.4642318706518E-02
    91  9.0000000000000E-01  1.0541693145926E+00  1.0442947911530E-01
    92  9.1000000000000E-01  1.0528836779713E+00  1.1424644162772E-01
    93  9.2000000000000E-01  1.0512719379597E+00  1.2409990402061E-01
    94  9.3000000000000E-01  1.0493286928472E+00  1.3399726847571E-01
    95  9.4000000000000E-01  1.0470483789472E+00  1.4394660032977E-01
    96  9.5000000000000E-01  1.0444252942562E+00  1.5395658314128E-01
    97  9.6000000000000E-01  1.0414536236380E+00  1.6403647020174E-01
    98  9.7000000000000E-01  1.0381274654646E+00  1.7419603263572E-01
    99  9.8000000000000E-01  1.0344408596397E+00  1.8444550424900E-01
   100  9.9000000000000E-01  1.0303878169243E+00  1.9479552329933E-01
   101  1.0000000000000E+00  1.0259623494753E+00  2.0525707137932E-01
   102  1.0100000000000E+00  1.0211585025044E+00  2.1584140961466E-01
   103  1.0200000000000E+00  1.0159703869562E+00  2.2656001239516E-01
   104  1.0300000000000E+00  1.0103922130995E+00  2.3742449886869E-01
   105  1.0400000000000E+00  1.0044183249201E+00  2.4844656244084E-01
   106  1.0500000000000E+00  9.9804323519884E-01  2.5963789853440E-01
   107  1.0600000000000E+00  9.9126166115126E-01  2.7101013087404E-01
   108  1.0700000000000E+00  9.8406856050498E-01  2.8257473657127E-01
   109  1.0800000000000E+00  9.7645916788204E-01  2.9434297029411E-01
   110  1.0900000000000E+00  9.6842903135341E-01  3.0632578781353E-01
   111  1.1000000000000E+00  9.5997404902752E-01  3.1853376922676E-01
   112  1.1100000000000E+00  9.5109050553294E-01  3.3097704216251E-01
   113  1.1200000000000E+00  9.4177510825233E-01  3.4366520527935E-01
   114  1.1300000000000E+00  9.3202502316366E-01  3.5660725237095E-01
   115  1.1400000000000E+00  9.2183791014284E-01  3.6981149739603E-01
   116  1.1500000000000E+00  9.1121195758148E-01  3.8328550075107E-01
   117  1.1600000000000E+00  9.0014591617330E-01  3.9703599710486E-01
   118  1.1700000000000E+00  8.8863913172293E-01  4.1106882511263E-01
   119  1.1800000000000E+00  8.7669157683201E-01  4.2538885932513E-01
   120  1.1900000000000E+00  8.6430388131872E-01  4.3999994460500E-01
   121  1.2000000000000E+00  8.5147736122920E-01  4.5490483335716E-01
   122  1.2100000000000E+00  8.3821404630198E-01  4.7010512587430E-01
   123  1.2200000000000E+00  8.2451670574963E-01  4.8560121409114E-01
   124  1.2300000000000E+00  8.1038887222576E-01  5.0139222903229E-01
   125  1.2400000000000E+00  7.9583486385002E-01  5.1747599222845E-01
   126  1.2500000000000E+00  7.8085980416845E-01  5.3384897136482E-01
   127  1.2600000000000E+00  7.6546963993230E-01  5.5050624041304E-01
   128  1.2700000000000E+00  7.4967115658438E-01  5.6744144448394E-01
   129  1.2800000000000E+00  7.3347199134847E-01  5.8464676962478E-01
   130  1.2900000000000E+00  7.1688064382477E-01  6.0211291776706E-01
   131  1.3000000000000E+00  6.9990648400143E-01  6.1982908701586E-01
   132  1.3100000000000E+00  6.8255975760077E-01  6.3778295745239E-01
   133  1.3200000000000E+00  6.6485158868686E-01  6.5596068260319E-01
   134  1.3300000000000E+00  6.4679397947037E-01  6.7434688670938E-01
   135  1.3400000000000E+00  6.2839980725560E-01  6.9292466790896E-01
   136  1.3500000000000E+00  6.0968281848446E-01  7.1167560742336E-01
   137  1.3600000000000E+00  5.9065761984205E-01  7.3057978481788E-01
   138  1.3700000000000E+00  5.7133966639875E-01  7.4961579938265E-01
   139  1.3800000000000E+00  5.5174524677425E-01  7.6876079765760E-01
   140  1.3900000000000E+00  5.3189146531966E-01  7.8799050710128E-01
   141  1.4000000000000E+00  5.1179622132488E-01  8.0727927587949E-01
   142  1.4100000000000E+00  4.9147818526918E-01  8.2660011872548E-01
   143  1.4200000000000E+00  4.7095677214435E-01  8.4592476879843E-01
   144  1.4300000000000E+00  4.5025211189078E-01  8.6522373544380E-01
   145  1.4400000000000E+00  4.2938501699827E-01  8.8446636773281E-01
   146  1.4500000000000E+00  4.0837694733420E-01  9.0362092363573E-01
   147  1.4600000000000E+00  3.8724997227295E-01  9.2265464465865E-01
   148  1.4700000000000E+00  3.6602673021167E-01  9.4153383574929E-01
   149  1.4800000000000E+00  3.4473038556778E-01  9.6022395025516E-01
   150  1.4900000000000E+00  3.2338458336460E-01  9.7868967969341E-01
   151  1.5000000000000E+00  3.0201340152168E-01  9.9689504807005E-01
   152  1.5100000000000E+00  2.8064130097635E-01  1.0148035104648E+00
   153  1.5200000000000E+00  2.5929307377290E-01  1.0323780555764E+00
   154  1.5300000000000E+00  2.3799378926490E-01  1.0495813119050E+00
   155  1.5400000000000E+00  2.1676873858516E-01  1.0663756572269E+00
   156  1.5500000000000E+00  1.9564337754616E-01  1.0827233310020E+00
   157  1.5600000000000E+00  1.7464326814179E-01  1.0985865493361E+00
   158  1.5700000000000E+00  1.5379401882852E-01  1.1139276221048E+00
   159  1.5800000000000E+00  1.3312122377080E-01  1.1287090718331E+00
   160  1.5900000000000E+00  1.1265040124193E-01  1.1428937539102E+00
   161  1.6000000000000E+00  9.2406931376885E-02  1.1564449777110E+00
   162  1.6100000000000E+00  7.2415993478598E-02  1.1693266281821E+00
   163  1.6200000000000E+00  5.2702503083275E-02  1.1815032874460E+00
   164  1.6300000000000E+00  3.3291048993812E-02  1.1929403559685E+00
   165  1.6400000000000E+00  1.4205830493007E-02  1.2036041728302E+00
   166  1.6500000000000E+00 -4.5294050497916E-03  1.2134621346413E+00
   167  1.6600000000000E+00 -2.2891423963819E-02  1.2224828126342E+00
   168  1.6700000000000E+00 -4.0857567238657E-02  1.2306360674747E+00
   169  1.6800000000000E+00 -5.8405810447940E-02  1.2378931613283E+00
   170  1.6900000000000E+00 -7.5514822421727E-02  1.2442268667279E+00
   171  1.7000000000000E+00 -9.2164022455977E-02  1.2496115717924E+00
   172  1.7100000000000E+00 -1.0833363585090E-01  1.2540233813529E+00
   173  1.7200000000000E+00 -1.2400474757328E-01  1.2574402135559E+00
   174  1.7300000000000E+00 -1.3915935384266E-01  1.2598418915203E+00
   175  1.7400000000000E+00 -1.5378041144635E-01  1.2612102296417E+00
   176  1.7500000000000E+00 -1.6785188459453E-01  1.2615291141491E+00
   177  1.7600000000000E+00 -1.8135878913324E-01  1.2607845775396E+00
   178  1.7700000000000E+00 -1.9428723394113E-01  1.2589648665297E+00
   179  1.7800000000000E+00 -2.0662445934369E-01  1.2560605031870E+00
   180  1.7900000000000E+00 -2.1835887238792E-01  1.2520643389229E+00
   181  1.8000000000000E+00 -2.2948007883024E-01  1.2469716010518E+00
   182  1.8100000000000E+00 -2.3997891170033E-01  1.2407799316472E+00
   183  1.8200000000000E+00 -2.4984745631519E-01  1.2334894184475E+00
   184  1.8300000000000E+00 -2.5907907162852E-01  1.2251026175931E+00
   185  1.8400000000000E+00 -2.6766840781299E-01  1.2156245680053E+00
   186  1.8500000000000E+00 -2.7561141998551E-01  1.2050627972410E+00
   187  1.8600000000000E+00 -2.8290537799835E-01  1.1934273186947E+00
   188  1.8700000000000E+00 -2.8954887223243E-01  1.1807306200414E+00
   189  1.8800000000000E+00 -2.9554181534302E-01  1.1669876428514E+00
   190  1.8900000000000E+00 -3.0088543992164E-01  1.1522157533370E+00
   191  1.9000000000000E+00 -3.0558229205281E-01  1.1364347042231E+00
   192  1.9100000000000E+00 -3.0963622075830E-01  1.1196665877671E+00
   193  1.9200000000000E+00 -3.1305236333631E-01  1.1019357799864E+00
   194  1.9300000000000E+00 -3.1583712661782E-01  1.0832688761832E+00
   195  1.9400000000000E+00 -3.1799816417685E-01  1.0636946178912E+00
   196  1.9500000000000E+00 -3.1954434954615E-01  1.0432438113991E+00
   197  1.9600000000000E+00 -3.2048574550484E-01  1.0219492380413E+00
   198  1.9700000000000E+00 -3.2083356951816E-01  9.9984555647391E-01
   199  1.9800000000000E+00 -3.2060015542465E-01  9.7696919718980E-01
   200  1.9900000000000E+00 -3.1979891147978E-01  9.5335824955518E-01
   201  2.0000000000000E+00 -3.1844427487878E-01  9.2905234167978E-01
   202  2.0100000000000E+00 -3.1655166289475E-01  9.0409251346307E-01
   203  2.0200000000000E+00 -3.1413742078142E-01  8.7852108318644E-01
   204  2.0300000000000E+00 -3.1121876660221E-01  8.5238150804816E-01
   205  2.0400000000000E+00 -3.0781373315911E-01  8.2571823906355E-01
   206  2.0500000000000E+00 -3.0394110718939E-01  7.9857657065560E-01
   207  2.0600000000000E+00 -2.9962036613120E-01  7.7100248614340E-01
   208  2.0700000000000E+00 -2.9487161231593E-01  7.4304249719616E-01
   209  2.0800000000000E+00 -2.8971550656016E-01  7.1474348981593E-01
   210  2.0900000000000E+00 -2.8417319338574E-01  6.8615252226049E-01
   211  2.1000000000000E+00 -2.7826627228797E-01  6.5731695094779E-01
   212  2.1100000000000E+00 -2.7201679164357E-01  6.2828468942761E-01
   213  2.1200000000000E+00 -2.6544722552078E-01  5.9910432159029E-01
   214  2.1300000000000E+00 -2.5858040889721E-01  5.6982491953244E-01
   215  2.1400000000000E+00 -2.5143947937387E-01  5.4049591499626E-01
   216  2.1500000000000E+00 -2.4404781618126E-01  5.1116695566999E-01
   217  2.1600000000000E+00 -2.3642897883465E-01  4.8188776293005E-01
   218  2.1700000000000E+00 -2.2860664521374E-01  4.5270798835863E-01
   219  2.1800000000000E+00 -2.2060454936814E-01  4.2367707024575E-01
   220  2.1900000000000E+00 -2.1244641923637E-01  3.9484409044984E-01
   221  2.2000000000000E+00 -2.0415591447499E-01  3.6625763205612E-01
   222  2.2100000000000E+00 -1.9575656459929E-01  3.3796563830423E-01
   223  2.2200000000000E+00 -1.8727170763630E-01  3.1001527325549E-01
   224  2.2300000000000E+00 -1.7872442948372E-01  2.8245278462756E-01
   225  2.2400000000000E+00 -1.7013750417422E-01  2.5532336927035E-01
   226  2.2500000000000E+00 -1.6153333523693E-01  2.2867104171825E-01
   227  2.2600000000000E+00 -1.5293389834411E-01  2.0253850624499E-01
   228  2.2700000000000E+00 -1.4436068542822E-01  1.7696703284042E-01
   229  2.2800000000000E+00 -1.3583465045162E-01  1.5199633753114E-01
   230  2.2900000000000E+00 -1.2737615700361E-01  1.2766446743828E-01
   231  2.3000000000000E+00 -1.1900492789315E-01  1.0400769094962E-01
   232  2.3100000000000E+00 -1.1073999690090E-01  8.1060393374042E-02
   233  2.3200000000000E+00 -1.0259966284744E-01  5.8854978434564E-02
   234  2.3300000000000E+00 -9.4601446125837E-02  3.7421775929825E-02
   235  2.3400000000000E+00 -8.6762047837865E-02  1.6788955868783E-02
   236  2.3500000000000E+00 -7.9097311669568E-02 -3.0175506126796E-03
   237  2.3600000000000E+00 -7.1622188626616E-02 -2.1974123295140E-02
   238  2.3700000000000E+00 -6.4350704742518E-02 -4.0059517632671E-02
   239  2.3800000000000E+00 -5.7295931868918E-02 -5.7254921980181E-02
   240  2.3900000000000E+00 -5.0469961639338E-02 -7.3544007099281E-02
   241  2.4000000000000E+00 -4.3883882690202E-02 -8.8912967765878E-02
   242  2.4100000000000E+00 -3.7547761212742E-02 -1.0335055632857E-01
   243  2.4200000000000E+00 -3.1470624901216E-02 -1.1684810807919E-01
   244  2.4300000000000E+00 -2.5660450346708E-02 -1.2939955834144E-01
   245  2.4400000000000E+00 -2.0124153916819E-02 -1.4100145120252E-01
   246  2.4500000000000E+00 -1.4867586152092E-02 -1.5165293984074E-01
   247  2.4600000000000E+00 -9.8955296953983E-03 -1.6135577842477E-01
   248  2.4700000000000E+00 -5.2117007598469E-03 -1.7011430559049E-01
   249  2.4800000000000E+00 -8.1875413295208E-04 -1.7793541952720E-01
   250  2.4900000000000E+00  3.2817083032033E-03 -1.8482854473536E-01
   251  2.5000000000000E+00  7.0891255650196E-03 -1.9080559054426E-01
   252  2.5100000000000E+00  1.0603962109291E-02 -1.9588090149602E-01
   253  2.5200000000000E+00  1.3827688978574E-02 -2.0007119973986E-01
   254  2.5300000000000E+00  1.6762761613946E-02 -2.0339551960636E-01
   255  2.5400000000000E+00  1.9412594401766E-02 -2.0587513453497E-01
   256  2.5500000000000E+00  2.1781532044967E-02 -2.0753347659007E-01
   257  2.5600000000000E+00  2.3874817854708E-02 -2.0839604880762E-01
   258  2.5700000000000E+00  2.5698559056643E-02 -2.0849033060310E-01
   259  2.5800000000000E+00  2.7259689235799E-02 -2.0784567655839E-01
   260  2.5900000000000E+00  2.8565928044791E-02 -2.0649320889634E-01
   261  2.6000000000000E+00  2.9625738297122E-02 -2.0446570393736E-01
   262  2.6100000000000E+00  3.0448280597947E-02 -2.0179747291875E-01
   263  2.6200000000000E+00  3.1043365659743E-02 -1.9852423753820E-01
   264  2.6300000000000E+00  3.1421404453428E-02 -1.9468300058533E-01
   265  2.6400000000000E+00  3.1593356367253E-02 -1.9031191208256E-01
   266  2.6500000000000E+00  3.1570675539960E-02 -1.8545013133974E-01
   267  2.6600000000000E+00  3.1365255545043E-02 -1.8013768535292E-01
   268  2.6700000000000E+00  3.0989372612286E-02 -1.7441532399524E-01
   269  2.6800000000000E+00  3.0455627568264E-02 -1.6832437243832E-01
   270  2.6900000000000E+00  2.9776886690656E-02 -1.6190658127446E-01
   271  2.7000000000000E+00  2.8966221672033E-02 -1.5520397480969E-01
   272  2.7100000000000E+00  2.8036848888693E-02 -1.4825869800025E-01
   273  2.7200000000000E+00  2.7002068177832E-02 -1.4111286251678E-01
   274  2.7300000000000E+00  2.5875201322050E-02 -1.3380839241289E-01
   275  2.7400000000000E+00  2.4669530447452E-02 -1.2638686989533E-01
   276  2.7500000000000E+00  2.3398236537249E-02 -1.1888938167609E-01
   277  2.7600000000000E+00  2.2074338263623E-02 -1.1135636638948E-01
   278  2.7700000000000E+00  2.0710631342346E-02 -1.0382746356487E-01
   279  2.7800000000000E+00  1.9319628607589E-02 -9.6341364625547E-02
   280  2.7900000000000E+00  1.7913501010130E-02 -8.8935666396199E-02
   281  2.8000000000000E+00  1.6504021819867E-02 -8.1646732122071E-02
   282  2.8100000000000E+00  1.5102500243503E-02 -7.4509530030432E-02
   283  2.8200000000000E+00  1.3719735010455E-02 -6.7557515956250E-02
   284  2.8300000000000E+00  1.2365989359595E-02 -6.0822563268040E-02
   285  2.8400000000000E+00  1.1050872706144E-02 -5.4334690197448E-02
   286  2.8500000000000E+00  9.7833033665691E-03 -4.8121964365196E-02
   287  2.8600000000000E+00  8.5708345254571E-03 -4.2209022904249E-02
   288  2.8700000000000E+00  7.4198661280565E-03 -3.6617521039718E-02
   289  2.8800000000000E+00  6.3372124130416E-03 -3.1369531758629E-02
   290  2.8900000000000E+00  5.3294470247537E-03 -2.6486108883152E-02
   291  2.9000000000000E+00  4.4019172931307E-03 -2.1985130760368E-02
   292  2.9100000000000E+00  3.5590387866888E-03 -1.7881932186676E-02
   293  2.9200000000000E+00  2.8042478945058E-03 -1.4189192764903E-02
   294  2.9300000000000E+00  2.1399501156062E-03 -1.0916816787724E-02
   295  2.9400000000000E+00  1.5675080155618E-03 -8.0719004764530E-03
   296  2.9500000000000E+00  1.0872577304316E-03 -5.6589111599757E-03
   297  2.9600000000000E+00  6.9852457671165E-04 -3.6798281894288E-03
   298  2.9700000000000E+00  3.9811428620224E-04 -2.1254505608023E-03
   299  2.9800000000000E+00  1.8469992315925E-04 -1.0007307305515E-03
   300  2.9900000000000E+00  5.9030091228496E-05 -3.2525705661257E-04
   301  3.0000000000000E+00  5.4558770538983E-06 -3.0130746956649E-05
   302  3.0100000000000E+00 -5.3432965827978E-06  3.0608322728593E-05
   303  3.0200000000000E+00 -2.3301995863742E-07  1.3442108058908E-06
   304  3.03  0. -0.
   305  3.04 -0.  0.
   306  3.05 -0.  0.
   307  3.06 -0.  0.
   308  3.07 -0.  0.
   309  3.08  0.  0.
   310  3.09  0.  0.
   311  3.10  0.  0.
   312  3.11  0.  0.
   313  3.12  0.  0.
   314  3.13  0.  0.
   315  3.14  0.  0.
   316  3.15  0.  0.
   317  3.16  0.  0.
   318  3.17  0.  0.
   319  3.18  0.  0.
   320  3.19  0.  0.
   321  3.20  0.  0.
   322  3.21  0.  0.
   323  3.22  0.  0.
   324  3.23  0.  0.
   325  3.24  0.  0.
   326  3.25  0.  0.
   327  3.26  0.  0.
   328  3.27  0.  0.
   329  3.28  0.  0.
   330  3.29  0.  0.
   331  3.30  0.  0.
   332  3.31  0.  0.
   333  3.32  0.  0.
   334  3.33  0.  0.
   335  3.34  0.  0.
   336  3.35  0.  0.
   337  3.36  0.  0.
   338  3.37  0.  0.
   339  3.38  0.  0.
   340  3.39  0.  0.
   341  3.40  0.  0.
   342  3.41  0.  0.
   343  3.42  0.  0.
   344  3.43  0.  0.
   345  3.44  0.  0.
   346  3.45  0.  0.
   347  3.46  0.  0.
   348  3.47  0.  0.
   349  3.48  0.  0.
   350  3.49  0.  0.
   351  3.50  0.  0.
   352  3.51  0.  0.
   353  3.52  0.  0.
   354  3.53  0.  0.
   355  3.54  0.  0.
   356  3.55  0.  0.
   357  3.56  0.  0.
   358  3.57  0.  0.
   359  3.58  0.  0.
   360  3.59  0.  0.
   361  3.60  0.  0.
   362  3.61  0.  0.
   363  3.62  0.  0.
   364  3.63  0.  0.
   365  3.64  0.  0.
   366  3.65  0.  0.
   367  3.66  0.  0.
   368  3.67  0.  0.
   369  3.68  0.  0.
   370  3.69  0.  0.
   371  3.70  0.  0.
   372  3.71  0.  0.
   373  3.72  0.  0.
   374  3.73  0.  0.
   375  3.74  0.  0.
   376  3.75  0.  0.
   377  3.76  0.  0.
   378  3.77  0.  0.
   379  3.78  0.  0.
   380  3.79  0.  0.
   381  3.80  0.  0.
   382  3.81  0.  0.
   383  3.82  0.  0.
   384  3.83  0.  0.
   385  3.84  0.  0.
   386  3.85  0.  0.
   387  3.86  0.  0.
   388  3.87  0.  0.
   389  3.88  0.  0.
   390  3.89  0.  0.
   391  3.90  0.  0.
   392  3.91  0.  0.
   393  3.92  0.  0.
   394  3.93  0.  0.
   395  3.94  0.  0.
   396  3.95  0.  0.
   397  3.96  0.  0.
   398  3.97  0.  0.
   399  3.98  0.  0.
   400  3.99  0.  0.
   401  4.00  0.  0.
   402  4.01  0.  0.
   403  4.02  0.  0.
   404  4.03  0.  0.
   405  4.04  0.  0.
   406  4.05  0.  0.
   407  4.06  0.  0.
   408  4.07  0.  0.
   409  4.08  0.  0.
   410  4.09  0.  0.
   411  4.10  0.  0.
   412  4.11  0.  0.
   413  4.12  0.  0.
   414  4.13  0.  0.
   415  4.14  0.  0.
   416  4.15  0.  0.
   417  4.16  0.  0.
   418  4.17  0.  0.
   419  4.18  0.  0.
   420  4.19  0.  0.
   421  4.20  0.  0.
   422  4.21  0.  0.
   423  4.22  0.  0.
   424  4.23  0.  0.
   425  4.24  0.  0.
   426  4.25  0.  0.
   427  4.26  0.  0.
   428  4.27  0.  0.
   429  4.28  0.  0.
   430  4.29  0.  0.
   431  4.30  0.  0.
   432  4.31  0.  0.
   433  4.32  0.  0.
   434  4.33  0.  0.
   435  4.34  0.  0.
   436  4.35  0.  0.
   437  4.36  0.  0.
   438  4.37  0.  0.
   439  4.38  0.  0.
   440  4.39  0.  0.
   441  4.40  0.  0.
   442  4.41  0.  0.
   443  4.42  0.  0.
   444  4.43  0.  0.
   445  4.44  0.  0.
   446  4.45  0.  0.
   447  4.46  0.  0.
   448  4.47  0.  0.
   449  4.48  0.  0.
   450  4.49  0.  0.
   451  4.50  0.  0.
   452  4.51  0.  0.
   453  4.52  0.  0.
   454  4.53  0.  0.
   455  4.54  0.  0.
   456  4.55  0.  0.
   457  4.56  0.  0.
   458  4.57  0.  0.
   459  4.58  0.  0.
   460  4.59  0.  0.
   461  4.60  0.  0.
   462  4.61  0.  0.
   463  4.62  0.  0.
   464  4.63  0.  0.
   465  4.64  0.  0.
   466  4.65  0.  0.
   467  4.66  0.  0.
   468  4.67  0.  0.
   469  4.68  0.  0.
   470  4.69  0.  0.
   471  4.70  0.  0.
   472  4.71  0.  0.
   473  4.72  0.  0.
   474  4.73  0.  0.
   475  4.74  0.  0.
   476  4.75  0.  0.
   477  4.76  0.  0.
   478  4.77  0.  0.
   479  4.78  0.  0.
   480  4.79  0.  0.
   481  4.80  0.  0.
   482  4.81  0.  0.
   483  4.82  0.  0.
   484  4.83  0.  0.
   485  4.84  0.  0.
   486  4.85  0.  0.
   487  4.86  0.  0.
   488  4.87  0.  0.
   489  4.88  0.  0.
   490  4.89  0.  0.
   491  4.90  0.  0.
   492  4.91  0.  0.
   493  4.92  0.  0.
   494  4.93  0.  0.
   495  4.94  0.  0.
   496  4.95  0.  0.
   497  4.96  0.  0.
   498  4.97  0.  0.
   499  4.98  0.  0.
   500  4.99  0.  0.
   501  5.00  0.  0.
   502  5.01  0.  0.
   503  5.02  0.  0.
   504  5.03  0.  0.
   505  5.04  0.  0.
   506  5.05  0.  0.
   507  5.06  0.  0.
   508  5.07  0.  0.
   509  5.08  0.  0.
   510  5.09  0.  0.
   511  5.10  0.  0.
   512  5.11  0.  0.
   513  5.12  0.  0.
   514  5.13  0.  0.
   515  5.14  0.  0.
   516  5.15  0.  0.
   517  5.16  0.  0.
   518  5.17  0.  0.
   519  5.18  0.  0.
   520  5.19  0.  0.
   521  5.20  0.  0.
   522  5.21  0.  0.
   523  5.22  0.  0.
   524  5.23  0.  0.
   525  5.24  0.  0.
   526  5.25  0.  0.
   527  5.26  0.  0.
   528  5.27  0.  0.
   529  5.28  0.  0.
   530  5.29  0.  0.
   531  5.30  0.  0.
   532  5.31  0.  0.
   533  5.32  0.  0.
   534  5.33  0.  0.
   535  5.34  0.  0.
   536  5.35  0.  0.
   537  5.36  0.  0.
   538  5.37  0.  0.
   539  5.38  0.  0.
   540  5.39  0.  0.
   541  5.40  0.  0.
   542  5.41  0.  0.
   543  5.42  0.  0.
   544  5.43  0.  0.
   545  5.44  0.  0.
   546  5.45  0.  0.
   547  5.46  0.  0.
   548  5.47  0.  0.
   549  5.48  0.  0.
   550  5.49  0.  0.
   551  5.50  0.  0.
   552  5.51  0.  0.
   553  5.52  0.  0.
   554  5.53  0.  0.
   555  5.54  0.  0.
   556  5.55  0.  0.
   557  5.56  0.  0.
   558  5.57  0.  0.
   559  5.58  0.  0.
   560  5.59  0.  0.
   561  5.60  0.  0.
   562  5.61  0.  0.
   563  5.62  0.  0.
   564  5.63  0.  0.
   565  5.64  0.  0.
   566  5.65  0.  0.
   567  5.66  0.  0.
   568  5.67  0.  0.
   569  5.68  0.  0.
   570  5.69  0.  0.
   571  5.70  0.  0.
   572  5.71  0.  0.
   573  5.72  0.  0.
   574  5.73  0.  0.
   575  5.74  0.  0.
   576  5.75  0.  0.
   577  5.76  0.  0.
   578  5.77  0.  0.
   579  5.78  0.  0.
   580  5.79  0.  0.
   581  5.80  0.  0.
   582  5.81  0.  0.
   583  5.82  0.  0.
   584  5.83  0.  0.
   585  5.84  0.  0.
   586  5.85  0.  0.
   587  5.86  0.  0.
   588  5.87  0.  0.
   589  5.88  0.  0.
   590  5.89  0.  0.
   591  5.90  0.  0.
   592  5.91  0.  0.
   593  5.92  0.  0.
   594  5.93  0.  0.
   595  5.94  0.  0.
   596  5.95  0.  0.
   597  5.96  0.  0.
   598  5.97  0.  0.
   599  5.98  0.  0.
   600  5.99  0.  0.
   1                         3.5743281592377E+00  6.9111542229884E-01
     1  0.0000000000000E+00  9.1251936562564E-12 -1.2122717760188E-11
     2  1.0000000000000E-02  3.6514251085322E-04 -1.9006743976548E-04
     3  2.0000000000000E-02  1.4598742008274E-03 -7.5960552611928E-04
     4  3.0000000000000E-02  3.2821093135527E-03 -1.7066236617805E-03
     5  4.0000000000000E-02  5.8283774883702E-03 -3.0278111835579E-03
     6  5.0000000000000E-02  9.0938325940798E-03 -4.7185478391869E-03
     7  6.0000000000000E-02  1.3072265063813E-02 -6.7729184117616E-03
     8  7.0000000000000E-02  1.7756117698741E-02 -9.1837314487445E-03
     9  8.0000000000000E-02  2.3136504899212E-02 -1.1942542040412E-02
    10  9.0000000000000E-02  2.9203235272867E-02 -1.5039678580591E-02
    11  1.0000000000000E-01  3.5944837560357E-02 -1.8464273430687E-02
    12  1.1000000000000E-01  4.3348589810464E-02 -2.2204297396334E-02
    13  1.2000000000000E-01  5.1400551727728E-02 -2.6246597914533E-02
    14  1.3000000000000E-01  6.0085600107196E-02 -3.0576940837908E-02
    15  1.4000000000000E-01  6.9387467262521E-02 -3.5180055691762E-02
    16  1.5000000000000E-01  7.9288782345482E-02 -4.0039684268872E-02
    17  1.6000000000000E-01  8.9771115447081E-02 -4.5138632416696E-02
    18  1.7000000000000E-01  1.0081502436259E-01 -5.0458824861521E-02
    19  1.8000000000000E-01  1.1240010389551E-01 -5.5981362904543E-02
    20  1.9000000000000E-01  1.2450503756819E-01 -6.1686584815510E-02
    21  2.0000000000000E-01  1.3710765159983E-01 -6.7554128740796E-02
    22  2.1000000000000E-01  1.5018497100620E-01 -7.3562997934361E-02
    23  2.2000000000000E-01  1.6371327766885E-01 -7.9691628112125E-02
    24  2.3000000000000E-01  1.7766817021581E-01 -8.5917956722886E-02
    25  2.4000000000000E-01  1.9202462555017E-01 -9.2219493922047E-02
    26  2.5000000000000E-01  2.0675706185755E-01 -9.8573395028017E-02
    27  2.6000000000000E-01  2.2183940291897E-01 -1.0495653423543E-01
    28  2.7000000000000E-01  2.3724514355083E-01 -1.1134557935419E-01
    29  2.8000000000000E-01  2.5294741599000E-01 -1.1771706733865E-01