Pb    ONCVPSP-4.0.1  r_core=   3.11114   2.96576   3.11114
     82.0000     14.0000      220801    zatom,zion,pspd
     8      11   2     4   600     0    pspcod,pspxc,lmax,lloc,mmax,r2well
  5.99000000  6.00000000  0.00000000    rchrg fchrg qchrg
     2     2     2     0     0    nproj
     1     1           extension_switch
   0                         5.3053872983048E+00  8.5966622958506E-01
     1  0.0000000000000E+00  2.9523605782344E-13 -5.1630921760193E-13
     2  1.0000000000000E-02  2.4262153516234E-02 -1.3865654711338E-02
     3  2.0000000000000E-02  4.8510328903298E-02 -2.7707740039756E-02
     4  3.0000000000000E-02  7.2730562398421E-02 -4.1502726051694E-02
     5  4.0000000000000E-02  9.6908918958470E-02 -5.5227161659655E-02
     6  5.0000000000000E-02  1.2103150658683E-01 -6.8857713913439E-02
     7  6.0000000000000E-02  1.4508449062049E-01 -8.2371207132871E-02
     8  7.0000000000000E-02  1.6905410796387E-01 -9.5744661828554E-02
     9  8.0000000000000E-02  1.9292668125523E-01 -1.0895533335673E-01
    10  9.0000000000000E-02  2.1668863295174E-01 -1.2198075025362E-01
    11  1.0000000000000E-01  2.4032649931819E-01 -1.3479875219401E-01
    12  1.1000000000000E-01  2.6382694430440E-01 -1.4738752751789E-01
    13  1.2000000000000E-01  2.8717677329554E-01 -1.5972565026822E-01
    14  1.3000000000000E-01  3.1036294671894E-01 -1.7179211668181E-01
    15  1.4000000000000E-01  3.3337259349072E-01 -1.8356638107431E-01
    16  1.5000000000000E-01  3.5619302428436E-01 -1.9502839105934E-01
    17  1.6000000000000E-01  3.7881174460328E-01 -2.0615862204072E-01
    18  1.7000000000000E-01  4.0121646763809E-01 -2.1693811091557E-01
    19  1.8000000000000E-01  4.2339512688927E-01 -2.2734848892531E-01
    20  1.9000000000000E-01  4.4533588853455E-01 -2.3737201359027E-01
    21  2.0000000000000E-01  4.6702716352028E-01 -2.4699159966316E-01
    22  2.1000000000000E-01  4.8845761935483E-01 -2.5619084903535E-01
    23  2.2000000000000E-01  5.0961619158191E-01 -2.6495407952961E-01
    24  2.3000000000000E-01  5.3049209491083E-01 -2.7326635251222E-01
    25  2.4000000000000E-01  5.5107483398021E-01 -2.8111349925708E-01
    26  2.5000000000000E-01  5.7135421373145E-01 -2.8848214599409E-01
    27  2.6000000000000E-01  5.9132034936752E-01 -2.9535973757414E-01
    28  2.7000000000000E-01  6.1096367587251E-01 -3.0173455968343E-01
    29  2.8000000000000E-01  6.3027495706732E-01 -3.0759575954008E-01
    30  2.9000000000000E-01  6.4924529417641E-01 -3.1293336500670E-01
    31  3.0000000000000E-01  6.6786613388087E-01 -3.1773830205399E-01
    32  3.1000000000000E-01  6.8612927583299E-01 -3.2200241051130E-01
    33  3.2000000000000E-01  7.0402687960786E-01 -3.2571845804194E-01
    34  3.3000000000000E-01  7.2155147106788E-01 -3.2888015228311E-01
    35  3.4000000000000E-01  7.3869594811658E-01 -3.3148215109234E-01
    36  3.5000000000000E-01  7.5545358581887E-01 -3.3352007084534E-01
    37  3.6000000000000E-01  7.7181804086555E-01 -3.3499049273281E-01
    38  3.7000000000000E-01  7.8778335536111E-01 -3.3589096700756E-01
    39  3.8000000000000E-01  8.0334395991461E-01 -3.3622001513677E-01
    40  3.9000000000000E-01  8.1849467601515E-01 -3.3597712981840E-01
    41  4.0000000000000E-01  8.3323071767447E-01 -3.3516277282532E-01
    42  4.1000000000000E-01  8.4754769232126E-01 -3.3377837064581E-01
    43  4.2000000000000E-01  8.6144160093303E-01 -3.3182630789373E-01
    44  4.3000000000000E-01  8.7490883739365E-01 -3.2930991846802E-01
    45  4.4000000000000E-01  8.8794618706670E-01 -3.2623347444642E-01
    46  4.5000000000000E-01  9.0055082457682E-01 -3.2260217270506E-01
    47  4.6000000000000E-01  9.1272031079364E-01 -3.1842211926197E-01
    48  4.7000000000000E-01  9.2445258901545E-01 -3.1370031134913E-01
    49  4.8000000000000E-01  9.3574598035230E-01 -3.0844461722553E-01
    50  4.9000000000000E-01  9.4659917831085E-01 -3.0266375375011E-01
    51  5.0000000000000E-01  9.5701124258629E-01 -2.9636726174211E-01
    52  5.1000000000000E-01  9.6698159206934E-01 -2.8956547916308E-01
    53  5.2000000000000E-01  9.7650999707956E-01 -2.8226951216381E-01
    54  5.3000000000000E-01  9.8559657083909E-01 -2.7449120404652E-01
    55  5.4000000000000E-01  9.9424176020405E-01 -2.6624310220158E-01
    56  5.5000000000000E-01  1.0024463356742E+00 -2.5753842308576E-01
    57  5.6000000000000E-01  1.0102113807043E+00 -2.4839101531769E-01
    58  5.7000000000000E-01  1.0175382803443E+00 -2.3881532097387E-01
    59  5.8000000000000E-01  1.0244287092377E+00 -2.2882633517736E-01
    60  5.9000000000000E-01  1.0308846190122E+00 -2.1843956407884E-01
    61  6.0000000000000E-01  1.0369082250978E+00 -2.0767098133782E-01
    62  6.1000000000000E-01  1.0425019930131E+00 -1.9653698321975E-01
    63  6.2000000000000E-01  1.0476686241601E+00 -1.8505434243168E-01
    64  6.3000000000000E-01  1.0524110411750E+00 -1.7324016082713E-01
    65  6.4000000000000E-01  1.0567323728811E+00 -1.6111182111683E-01
    66  6.5000000000000E-01  1.0606359388955E+00 -1.4868693772951E-01
    67  6.6000000000000E-01  1.0641252339422E+00 -1.3598330697224E-01
    68  6.7000000000000E-01  1.0672039119276E+00 -1.2301885664589E-01
    69  6.8000000000000E-01  1.0698757698352E+00 -1.0981159527663E-01
    70  6.9000000000000E-01  1.0721447314999E+00 -9.6379561128725E-02
    71  7.0000000000000E-01  1.0740148313229E+00 -8.2740771168314E-02
    72  7.1000000000000E-01  1.0754901979897E+00 -6.8913170151299E-02
    73  7.2000000000000E-01  1.0765750382559E+00 -5.4914580011400E-02
    74  7.3000000000000E-01  1.0772736208661E+00 -4.0762649726588E-02
    75  7.4000000000000E-01  1.0775902606708E+00 -2.6474805844032E-02
    76  7.5000000000000E-01  1.0775293030090E+00 -1.2068203844101E-02
    77  7.6000000000000E-01  1.0770951084218E+00  2.4403194756976E-03
    78  7.7000000000000E-01  1.0762920377650E+00  1.7034292416222E-02
    79  7.8000000000000E-01  1.0751244377857E+00  3.1697653413196E-02
    80  7.9000000000000E-01  1.0735966272280E+00  4.6414794517642E-02
    81  8.0000000000000E-01  1.0717128835344E+00  6.1170603146558E-02
    82  8.1000000000000E-01  1.0694774302024E+00  7.5950501933973E-02
    83  8.2000000000000E-01  1.0668944248616E+00  9.0740486516477E-02
    84  8.3000000000000E-01  1.0639679481270E+00  1.0552716109374E-01
    85  8.4000000000000E-01  1.0607019932893E+00  1.2029777160915E-01
    86  8.5000000000000E-01  1.0571004568931E+00  1.3504023640444E-01
    87  8.6000000000000E-01  1.0531671302579E+00  1.4974317420799E-01
    88  8.7000000000000E-01  1.0489056919882E+00  1.6439592932638E-01
    89  8.8000000000000E-01  1.0443197015181E+00  1.7898859391699E-01
    90  8.9000000000000E-01  1.0394125937325E+00  1.9351202722985E-01
    91  9.0000000000000E-01  1.0341876747009E+00  2.0795787171701E-01
    92  9.1000000000000E-01  1.0286481185567E+00  2.2231856591890E-01
    93  9.2000000000000E-01  1.0227969655515E+00  2.3658735404953E-01
    94  9.3000000000000E-01  1.0166371213062E+00  2.5075829221349E-01
    95  9.4000000000000E-01  1.0101713572786E+00  2.6482625120145E-01
    96  9.5000000000000E-01  1.0034023124600E+00  2.7878691582379E-01
    97  9.6000000000000E-01  9.9633249631052E-01  2.9263678075559E-01
    98  9.7000000000000E-01  9.8896429293266E-01  3.0637314287998E-01
    99  9.8000000000000E-01  9.8129996648344E-01  3.1999409013195E-01
   100  9.9000000000000E-01  9.7334166781376E-01  3.3349848685826E-01
   101  1.0000000000000E+00  9.6509144232186E-01  3.4688595572434E-01
   102  1.0100000000000E+00  9.5655123899986E-01  3.6015685621380E-01
   103  1.0200000000000E+00  9.4772292064741E-01  3.7331225978125E-01
   104  1.0300000000000E+00  9.3860827522034E-01  3.8635392173306E-01
   105  1.0400000000000E+00  9.2920902827633E-01  3.9928424992686E-01
   106  1.0500000000000E+00  9.1952685647416E-01  4.1210627039375E-01
   107  1.0600000000000E+00  9.0956340207702E-01  4.2482359000239E-01
   108  1.0700000000000E+00  8.9932028840524E-01  4.3744035629797E-01
   109  1.0800000000000E+00  8.8879913617811E-01  4.4996121466238E-01
   110  1.0900000000000E+00  8.7800158067929E-01  4.6239126295594E-01
   111  1.1000000000000E+00  8.6692928967544E-01  4.7473600381263E-01
   112  1.1100000000000E+00  8.5558398201271E-01  4.8700129477397E-01
   113  1.1200000000000E+00  8.4396744681125E-01  4.9919329645761E-01
   114  1.1300000000000E+00  8.3208156317374E-01  5.1131841896752E-01
   115  1.1400000000000E+00  8.1992832031990E-01  5.2338326676291E-01
   116  1.1500000000000E+00  8.0750983805516E-01  5.3539458221221E-01
   117  1.1600000000000E+00  7.9482838747889E-01  5.4735918806630E-01
   118  1.1700000000000E+00  7.8188641183407E-01  5.5928392909352E-01
   119  1.1800000000000E+00  7.6868654739825E-01  5.7117561312434E-01
   120  1.1900000000000E+00  7.5523164431336E-01  5.8304095175965E-01
   121  1.2000000000000E+00  7.4152478725038E-01  5.9488650100098E-01
   122  1.2100000000000E+00  7.2756931580344E-01  6.0671860206366E-01
   123  1.2200000000000E+00  7.1336884450761E-01  6.1854332263664E-01
   124  1.2300000000000E+00  6.9892728237386E-01  6.3036639885312E-01
   125  1.2400000000000E+00  6.8424885183519E-01  6.4219317823654E-01
   126  1.2500000000000E+00  6.6933810699859E-01  6.5402856388406E-01
   127  1.2600000000000E+00  6.5419995109853E-01  6.6587696014825E-01
   128  1.2700000000000E+00  6.3883965304953E-01  6.7774222007259E-01
   129  1.2800000000000E+00  6.2326286299728E-01  6.8962759483254E-01
   130  1.2900000000000E+00  6.0747562677084E-01  7.0153568542640E-01
   131  1.3000000000000E+00  5.9148439914116E-01  7.1346839685402E-01
   132  1.3100000000000E+00  5.7529605579514E-01  7.2542689501155E-01
   133  1.3200000000000E+00  5.5891790393836E-01  7.3741156652141E-01
   134  1.3300000000000E+00  5.4235769144426E-01  7.4942198170567E-01
   135  1.3400000000000E+00  5.2562361447256E-01  7.6145686089826E-01
   136  1.3500000000000E+00  5.0872432348522E-01  7.7351404427962E-01
   137  1.3600000000000E+00  4.9166892759393E-01  7.8559046540206E-01
   138  1.3700000000000E+00  4.7446699717964E-01  7.9768212855976E-01
   139  1.3800000000000E+00  4.5712856473105E-01  8.0978409014149E-01
   140  1.3900000000000E+00  4.3966412385606E-01  8.2189044408683E-01
   141  1.4000000000000E+00  4.2208462642758E-01  8.3399431154943E-01
   142  1.4100000000000E+00  4.0440147783238E-01  8.4608783485302E-01
   143  1.4200000000000E+00  3.8662653029992E-01  8.5816217580597E-01
   144  1.4300000000000E+00  3.6877207429586E-01  8.7020751842203E-01
   145  1.4400000000000E+00  3.5085082797341E-01  8.8221307607391E-01
   146  1.4500000000000E+00  3.3287592468406E-01  8.9416710308692E-01
   147  1.4600000000000E+00  3.1486089855772E-01  9.0605691075891E-01
   148  1.4700000000000E+00  2.9681966817116E-01  9.1786888777207E-01
   149  1.4800000000000E+00  2.7876651833208E-01  9.2958852494157E-01
   150  1.4900000000000E+00  2.6071608001507E-01  9.4120044422459E-01
   151  1.5000000000000E+00  2.4268330849426E-01  9.5268843189352E-01
   152  1.5100000000000E+00  2.2468345972614E-01  9.6403547575511E-01
   153  1.5200000000000E+00  2.0673206504454E-01  9.7522380627881E-01
   154  1.5300000000000E+00  1.8884490423807E-01  9.8623494147571E-01
   155  1.5400000000000E+00  1.7103797708848E-01  9.9704973535194E-01
   156  1.5500000000000E+00  1.5332747345640E-01  1.0076484297400E+00
   157  1.5600000000000E+00  1.3572974200854E-01  1.0180107092942E+00
   158  1.5700000000000E+00  1.1826125768775E-01  1.0281157594187E+00
   159  1.5800000000000E+00  1.0093858803449E-01  1.0379423268799E+00
   160  1.5900000000000E+00  8.3778358474623E-02  1.0474687828396E+00
   161  1.6000000000000E+00  6.6797216695061E-02  1.0566731880306E+00
   162  1.6100000000000E+00  5.0011796234096E-02  1.0655333597832E+00
   163  1.6200000000000E+00  3.3438679418988E-02  1.0740269405972E+00
   164  1.6300000000000E+00  1.7094359787683E-02  1.0821314679464E+00
   165  1.6400000000000E+00  9.9520413624827E-04  1.0898244449884E+00
   166  1.6500000000000E+00 -1.4842585663175E-02  1.0970834118477E+00
   167  1.6600000000000E+00 -3.0403010925714E-02  1.1038860171319E+00
   168  1.6700000000000E+00 -4.5670314347929E-02  1.1102100893347E+00
   169  1.6800000000000E+00 -6.0629017980476E-02  1.1160337077766E+00
   170  1.6900000000000E+00 -7.5263960825666E-02  1.1213352727314E+00
   171  1.7000000000000E+00 -8.9560335906051E-02  1.1260935743861E+00
   172  1.7100000000000E+00 -1.0350372665003E-01  1.1302878602828E+00
   173  1.7200000000000E+00 -1.1708014244152E-01  1.1338979008922E+00
   174  1.7300000000000E+00 -1.3027605318233E-01  1.1369040529758E+00
   175  1.7400000000000E+00 -1.4307842271773E-01  1.1392873203973E+00
   176  1.7500000000000E+00 -1.5547474097917E-01  1.1410294120500E+00
   177  1.7600000000000E+00 -1.6745305470114E-01  1.1421127965807E+00
   178  1.7700000000000E+00 -1.7900199657391E-01  1.1425207535968E+00
   179  1.7800000000000E+00 -1.9011081269836E-01  1.1422374210580E+00
   180  1.7900000000000E+00 -2.0076938821525E-01  1.1412478385673E+00
   181  1.8000000000000E+00 -2.1096827098689E-01  1.1395379862914E+00
   182  1.8100000000000E+00 -2.2069869321640E-01  1.1370948192583E+00
   183  1.8200000000000E+00 -2.2995259089725E-01  1.1339062967964E+00
   184  1.8300000000000E+00 -2.3872262099337E-01  1.1299614069005E+00
   185  1.8400000000000E+00 -2.4700217625890E-01  1.1252501853311E+00
   186  1.8500000000000E+00 -2.5478539761583E-01  1.1197637292736E+00
   187  1.8600000000000E+00 -2.6206718401701E-01  1.1134942054095E+00
   188  1.8700000000000E+00 -2.6884319973196E-01  1.1064348522744E+00
   189  1.8800000000000E+00 -2.7510987899374E-01  1.0985799766834E+00
   190  1.8900000000000E+00 -2.8086442794434E-01  1.0899249440085E+00
   191  1.9000000000000E+00 -2.8610482468458E-01  1.0804661715173E+00
   192  1.9100000000000E+00 -2.9082981282594E-01  1.0702010718510E+00
   193  1.9200000000000E+00 -2.9503892104881E-01  1.0591283302210E+00
   194  1.9300000000000E+00 -2.9873250812384E-01  1.0472484386076E+00
   195  1.9400000000000E+00 -3.0191179468068E-01  1.0345640057076E+00
   196  1.9500000000000E+00 -3.0457886718204E-01  1.0210797305452E+00
   197  1.9600000000000E+00 -3.0673668268174E-01  1.0068024146590E+00
   198  1.9700000000000E+00 -3.0838907032149E-01  9.9174095864642E-01
   199  1.9800000000000E+00 -3.0954073023220E-01  9.7590635261074E-01
   200  1.9900000000000E+00 -3.1019722983355E-01  9.5931166032965E-01
   201  2.0000000000000E+00 -3.1036499753123E-01  9.4197199706704E-01
   202  2.0100000000000E+00 -3.1005131382754E-01  9.2390450108079E-01
   203  2.0200000000000E+00 -3.0926429986794E-01  9.0512829888600E-01
   204  2.0300000000000E+00 -3.0801290345407E-01  8.8566446435753E-01
   205  2.0400000000000E+00 -3.0630688256483E-01  8.6553597180154E-01
   206  2.0500000000000E+00 -3.0415678642939E-01  8.4476764309741E-01
   207  2.0600000000000E+00 -3.0157393420852E-01  8.2338608907191E-01
   208  2.0700000000000E+00 -2.9857039134538E-01  8.0141964526639E-01
   209  2.0800000000000E+00 -2.9515894365352E-01  7.7889830226586E-01
   210  2.0900000000000E+00 -2.9135306922027E-01  7.5585363080929E-01
   211  2.1000000000000E+00 -2.8716690820731E-01  7.3231870188609E-01
   212  2.1100000000000E+00 -2.8261523063688E-01  7.0832800204369E-01
   213  2.1200000000000E+00 -2.7771340226009E-01  6.8391734416003E-01
   214  2.1300000000000E+00 -2.7247734861010E-01  6.5912377395001E-01
   215  2.1400000000000E+00 -2.6692351734604E-01  6.3398547246988E-01
   216  2.1500000000000E+00 -2.6106883899984E-01  6.0854165490464E-01
   217  2.1600000000000E+00 -2.5493068624578E-01  5.8283246595270E-01
   218  2.1700000000000E+00 -2.4852683181452E-01  5.5689887211449E-01
   219  2.1800000000000E+00 -2.4187540517668E-01  5.3078255119483E-01
   220  2.1900000000000E+00 -2.3499484812999E-01  5.0452577937438E-01
   221  2.2000000000000E+00 -2.2790386942099E-01  4.7817131616632E-01
   222  2.2100000000000E+00 -2.2062139854002E-01  4.5176228761467E-01
   223  2.2200000000000E+00 -2.1316653883063E-01  4.2534206809454E-01
   224  2.2300000000000E+00 -2.0555852005473E-01  3.9895416106683E-01
   225  2.2400000000000E+00 -1.9781665055675E-01  3.7264207914177E-01
   226  2.2500000000000E+00 -1.8996026917368E-01  3.4644922382671E-01
   227  2.2600000000000E+00 -1.8200869703822E-01  3.2041876532857E-01
   228  2.2700000000000E+00 -1.7398118942095E-01  2.9459352277217E-01
   229  2.2800000000000E+00 -1.6589688775813E-01  2.6901584519861E-01
   230  2.2900000000000E+00 -1.5777477201307E-01  2.4372749371693E-01
   231  2.3000000000000E+00 -1.4963361351740E-01  2.1876952517573E-01
   232  2.3100000000000E+00 -1.4149192843471E-01  1.9418217770159E-01
   233  2.3200000000000E+00 -1.3336793199189E-01  1.7000475847250E-01
   234  2.3300000000000E+00 -1.2527949361753E-01  1.4627553406890E-01
   235  2.3400000000000E+00 -1.1724409312431E-01  1.2303162373786E-01
   236  2.3500000000000E+00 -1.0927877807319E-01  1.0030889591744E-01
   237  2.3600000000000E+00 -1.0140012244930E-01  7.8141868339015E-02
   238  2.3700000000000E+00 -9.3624186777086E-02  5.6563612020639E-02
   239  2.3800000000000E+00 -8.5966479797767E-02  3.5605659451403E-02
   240  2.3900000000000E+00 -7.8441921829413E-02  1.5297917266375E-02
   241  2.4000000000000E+00 -7.1064809922415E-02 -4.3314163133057E-03
   242  2.4100000000000E+00 -6.3848784918713E-02 -2.3255929011340E-02
   243  2.4200000000000E+00 -5.6806800517324E-02 -4.1451066753322E-02
   244  2.4300000000000E+00 -4.9951094443188E-02 -5.8894200409753E-02
   245  2.4400000000000E+00 -4.3293161809208E-02 -7.5564686806869E-02
   246  2.4500000000000E+00 -3.6843730756103E-02 -9.1443923809210E-02
   247  2.4600000000000E+00 -3.0612740446020E-02 -1.0651539928676E-01
   248  2.4700000000000E+00 -2.4609321479023E-02 -1.2076473380378E-01
   249  2.4800000000000E+00 -1.8841778796295E-02 -1.3417971688300E-01
   250  2.4900000000000E+00 -1.3317577124271E-02 -1.4675033671534E-01
   251  2.5000000000000E+00 -8.0433290053241E-03 -1.5846880321160E-01
   252  2.5100000000000E+00 -3.0247854576180E-03 -1.6932956429929E-01
   253  2.5200000000000E+00  1.7331707075953E-03 -1.7932931540832E-01
   254  2.5300000000000E+00  6.2265288894767E-03 -1.8846700210019E-01
   255  2.5400000000000E+00  1.0452152001097E-02 -1.9674381579336E-01
   256  2.5500000000000E+00  1.4407775070847E-02 -2.0416318259958E-01
   257  2.5600000000000E+00  1.8092001145022E-02 -2.1073074528812E-01
   258  2.5700000000000E+00  2.1504294494725E-02 -2.1645433839182E-01
   259  2.5800000000000E+00  2.4644971149943E-02 -2.2134395653043E-01
   260  2.5900000000000E+00  2.7515186789184E-02 -2.2541171603224E-01
   261  2.6000000000000E+00  3.0116922011523E-02 -2.2867180992956E-01
   262  2.6100000000000E+00  3.2452965038787E-02 -2.3114045646189E-01
   263  2.6200000000000E+00  3.4526891899868E-02 -2.3283584122782E-01
   264  2.6300000000000E+00  3.6343044147814E-02 -2.3377805312607E-01
   265  2.6400000000000E+00  3.7906504182634E-02 -2.3398901427747E-01
   266  2.6500000000000E+00  3.9223068250030E-02 -2.3349240411532E-01
   267  2.6600000000000E+00  4.0299217192348E-02 -2.3231357784757E-01
   268  2.6700000000000E+00  4.1142085046055E-02 -2.3047947953853E-01
   269  2.6800000000000E+00  4.1759425574343E-02 -2.2801855004444E-01
   270  2.6900000000000E+00  4.2159576834213E-02 -2.2496063006010E-01
   271  2.7000000000000E+00  4.2351423889511E-02 -2.2133685856764E-01
   272  2.7100000000000E+00  4.2344359774993E-02 -2.1717956696454E-01
   273  2.7200000000000E+00  4.2148244833693E-02 -2.1252216918444E-01
   274  2.7300000000000E+00  4.1773364548868E-02 -2.0739904812515E-01
   275  2.7400000000000E+00  4.1230385994523E-02 -2.0184543870828E-01
   276  2.7500000000000E+00  4.0530313041780E-02 -1.9589730792190E-01
   277  2.7600000000000E+00  3.9684440450442E-02 -1.8959123218019E-01
   278  2.7700000000000E+00  3.8704306987281E-02 -1.8296427236480E-01
   279  2.7800000000000E+00  3.7601647715016E-02 -1.7605384692002E-01
   280  2.7900000000000E+00  3.6388345589479E-02 -1.6889760334778E-01
   281  2.8000000000000E+00  3.5076382519413E-02 -1.6153328850612E-01
   282  2.8100000000000E+00  3.3677790049437E-02 -1.5399861816812E-01
   283  2.8200000000000E+00  3.2204599776188E-02 -1.4633114600373E-01
   284  2.8300000000000E+00  3.0668793642526E-02 -1.3856813234086E-01
   285  2.8400000000000E+00  2.9082254387483E-02 -1.3074641377729E-01
   286  2.8500000000000E+00  2.7456716178585E-02 -1.2290227335578E-01
   287  2.8600000000000E+00  2.5803715514872E-02 -1.1507131135048E-01
   288  2.8700000000000E+00  2.4134542708473E-02 -1.0728831789989E-01
   289  2.8800000000000E+00  2.2460194058448E-02 -9.9587147688737E-02
   290  2.8900000000000E+00  2.0791324785915E-02 -9.2000596614247E-02
   291  2.9000000000000E+00  1.9138203761317E-02 -8.4560283042573E-02
   292  2.9100000000000E+00  1.7510665024884E-02 -7.7296521998623E-02
   293  2.9200000000000E+00  1.5918064483496E-02 -7.0238211874005E-02
   294  2.9300000000000E+00  1.4369257056898E-02 -6.3412769655738E-02
   295  2.9400000000000E+00  1.2872516657914E-02 -5.6845932522410E-02
   296  2.9500000000000E+00  1.1435522014863E-02 -5.0561713611243E-02
   297  2.9600000000000E+00  1.0065143065838E-02 -4.4581893427005E-02
   298  2.9700000000000E+00  8.7672571907973E-03 -3.8925581123146E-02
   299  2.9800000000000E+00  7.5473907335589E-03 -3.3610708180699E-02
   300  2.9900000000000E+00  6.4108255593356E-03 -2.8654269297111E-02
   301  3.0000000000000E+00  5.3619979557937E-03 -2.4070904541862E-02
   302  3.0100000000000E+00  4.4044456191573E-03 -1.9872768100738E-02
   303  3.0200000000000E+00  3.5408809905856E-03 -1.6069694670933E-02
   304  3.0300000000000E+00  2.7731364994860E-03 -1.2669065569174E-02
   305  3.0400000000000E+00  2.1021549981519E-03 -9.6757816417260E-03
   306  3.0500000000000E+00  1.5279709241467E-03 -7.0922151568080E-03
   307  3.0600000000000E+00  1.0498598885864E-03 -4.9190150065022E-03
   308  3.0700000000000E+00  6.6571222270161E-04 -3.1518808197769E-03
   309  3.0800000000000E+00  3.7142096743891E-04 -1.7785877814326E-03
   310  3.0900000000000E+00  1.6665527653452E-04 -8.0815129666867E-04
   311  3.1000000000000E+00  5.0241688358321E-05 -2.4703867232247E-04
   312  3.1100000000000E+00  2.5788201480428E-06 -1.2368668337987E-05
   313  3.1200000000000E+00 -5.6230476741175E-06  2.8548579302118E-05
   314  3.1300000000000E+00  7.9263232134587E-08 -3.9518246167465E-07
   315  3.1400  0. -0.
   316  3.1500 -0.  0.
   317  3.1600 -0.  0.
   318  3.1700 -0.  0.
   319  3.1800 -0.  0.
   320  3.1900  0.  0.
   321  3.2000  0.  0.
   322  3.2100  0.  0.
   323  3.2200  0.  0.
   324  3.2300  0.  0.
   325  3.2400  0.  0.
   326  3.2500  0.  0.
   327  3.2600  0.  0.
   328  3.2700  0.  0.
   329  3.2800  0.  0.
   330  3.2900  0.  0.
   331  3.3000  0.  0.
   332  3.3100  0.  0.
   333  3.3200  0.  0.
   334  3.3300  0.  0.
   335  3.3400  0.  0.
   336  3.3500  0.  0.
   337  3.3600  0.  0.
   338  3.3700  0.  0.
   339  3.3800  0.  0.
   340  3.3900  0.  0.
   341  3.4000  0.  0.
   342  3.4100  0.  0.
   343  3.4200  0.  0.
   344  3.4300  0.  0.
   345  3.4400  0.  0.
   346  3.4500  0.  0.
   347  3.4600  0.  0.
   348  3.4700  0.  0.
   349  3.4800  0.  0.
   350  3.4900  0.  0.
   351  3.5000  0.  0.
   352  3.5100  0.  0.
   353  3.5200  0.  0.
   354  3.5300  0.  0.
   355  3.5400  0.  0.
   356  3.5500  0.  0.
   357  3.5600  0.  0.
   358  3.5700  0.  0.
   359  3.5800  0.  0.
   360  3.5900  0.  0.
   361  3.6000  0.  0.
   362  3.6100  0.  0.
   363  3.6200  0.  0.
   364  3.6300  0.  0.
   365  3.6400  0.  0.
   366  3.6500  0.  0.
   367  3.6600  0.  0.
   368  3.6700  0.  0.
   369  3.6800  0.  0.
   370  3.6900  0.  0.
   371  3.7000  0.  0.
   372  3.7100  0.  0.
   373  3.7200  0.  0.
   374  3.7300  0.  0.
   375  3.7400  0.  0.
   376  3.7500  0.  0.
   377  3.7600  0.  0.
   378  3.7700  0.  0.
   379  3.7800  0.  0.
   380  3.7900  0.  0.
   381  3.8000  0.  0.
   382  3.8100  0.  0.
   383  3.8200  0.  0.
   384  3.8300  0.  0.
   385  3.8400  0.  0.
   386  3.8500  0.  0.
   387  3.8600  0.  0.
   388  3.8700  0.  0.
   389  3.8800  0.  0.
   390  3.8900  0.  0.
   391  3.9000  0.  0.
   392  3.9100  0.  0.
   393  3.9200  0.  0.
   394  3.9300  0.  0.
   395  3.9400  0.  0.
   396  3.9500  0.  0.
   397  3.9600  0.  0.
   398  3.9700  0.  0.
   399  3.9800  0.  0.
   400  3.9900  0.  0.
   401  4.0000  0.  0.
   402  4.0100  0.  0.
   403  4.0200  0.  0.
   404  4.0300  0.  0.
   405  4.0400  0.  0.
   406  4.0500  0.  0.
   407  4.0600  0.  0.
   408  4.0700  0.  0.
   409  4.0800  0.  0.
   410  4.0900  0.  0.
   411  4.1000  0.  0.
   412  4.1100  0.  0.
   413  4.1200  0.  0.
   414  4.1300  0.  0.
   415  4.1400  0.  0.
   416  4.1500  0.  0.
   417  4.1600  0.  0.
   418  4.1700  0.  0.
   419  4.1800  0.  0.
   420  4.1900  0.  0.
   421  4.2000  0.  0.
   422  4.2100  0.  0.
   423  4.2200  0.  0.
   424  4.2300  0.  0.
   425  4.2400  0.  0.
   426  4.2500  0.  0.
   427  4.2600  0.  0.
   428  4.2700  0.  0.
   429  4.2800  0.  0.
   430  4.2900  0.  0.
   431  4.3000  0.  0.
   432  4.3100  0.  0.
   433  4.3200  0.  0.
   434  4.3300  0.  0.
   435  4.3400  0.  0.
   436  4.3500  0.  0.
   437  4.3600  0.  0.
   438  4.3700  0.  0.
   439  4.3800  0.  0.
   440  4.3900  0.  0.
   441  4.4000  0.  0.
   442  4.4100  0.  0.
   443  4.4200  0.  0.
   444  4.4300  0.  0.
   445  4.4400  0.  0.
   446  4.4500  0.  0.
   447  4.4600  0.  0.
   448  4.4700  0.  0.
   449  4.4800  0.  0.
   450  4.4900  0.  0.
   451  4.5000  0.  0.
   452  4.5100  0.  0.
   453  4.5200  0.  0.
   454  4.5300  0.  0.
   455  4.5400  0.  0.
   456  4.5500  0.  0.
   457  4.5600  0.  0.
   458  4.5700  0.  0.
   459  4.5800  0.  0.
   460  4.5900  0.  0.
   461  4.6000  0.  0.
   462  4.6100  0.  0.
   463  4.6200  0.  0.
   464  4.6300  0.  0.
   465  4.6400  0.  0.
   466  4.6500  0.  0.
   467  4.6600  0.  0.
   468  4.6700  0.  0.
   469  4.6800  0.  0.
   470  4.6900  0.  0.
   471  4.7000  0.  0.
   472  4.7100  0.  0.
   473  4.7200  0.  0.
   474  4.7300  0.  0.
   475  4.7400  0.  0.
   476  4.7500  0.  0.
   477  4.7600  0.  0.
   478  4.7700  0.  0.
   479  4.7800  0.  0.
   480  4.7900  0.  0.
   481  4.8000  0.  0.
   482  4.8100  0.  0.
   483  4.8200  0.  0.
   484  4.8300  0.  0.
   485  4.8400  0.  0.
   486  4.8500  0.  0.
   487  4.8600  0.  0.
   488  4.8700  0.  0.
   489  4.8800  0.  0.
   490  4.8900  0.  0.
   491  4.9000  0.  0.
   492  4.9100  0.  0.
   493  4.9200  0.  0.
   494  4.9300  0.  0.
   495  4.9400  0.  0.
   496  4.9500  0.  0.
   497  4.9600  0.  0.
   498  4.9700  0.  0.
   499  4.9800  0.  0.
   500  4.9900  0.  0.
   501  5.0000  0.  0.
   502  5.0100  0.  0.
   503  5.0200  0.  0.
   504  5.0300  0.  0.
   505  5.0400  0.  0.
   506  5.0500  0.  0.
   507  5.0600  0.  0.
   508  5.0700  0.  0.
   509  5.0800  0.  0.
   510  5.0900  0.  0.
   511  5.1000  0.  0.
   512  5.1100  0.  0.
   513  5.1200  0.  0.
   514  5.1300  0.  0.
   515  5.1400  0.  0.
   516  5.1500  0.  0.
   517  5.1600  0.  0.
   518  5.1700  0.  0.
   519  5.1800  0.  0.
   520  5.1900  0.  0.
   521  5.2000  0.  0.
   522  5.2100  0.  0.
   523  5.2200  0.  0.
   524  5.2300  0.  0.
   525  5.2400  0.  0.
   526  5.2500  0.  0.
   527  5.2600  0.  0.
   528  5.2700  0.  0.
   529  5.2800  0.  0.
   530  5.2900  0.  0.
   531  5.3000  0.  0.
   532  5.3100  0.  0.
   533  5.3200  0.  0.
   534  5.3300  0.  0.
   535  5.3400  0.  0.
   536  5.3500  0.  0.
   537  5.3600  0.  0.
   538  5.3700  0.  0.
   539  5.3800  0.  0.
   540  5.3900  0.  0.
   541  5.4000  0.  0.
   542  5.4100  0.  0.
   543  5.4200  0.  0.
   544  5.4300  0.  0.
   545  5.4400  0.  0.
   546  5.4500  0.  0.
   547  5.4600  0.  0.
   548  5.4700  0.  0.
   549  5.4800  0.  0.
   550  5.4900  0.  0.
   551  5.5000  0.  0.
   552  5.5100  0.  0.
   553  5.5200  0.  0.
   554  5.5300  0.  0.
   555  5.5400  0.  0.
   556  5.5500  0.  0.
   557  5.5600  0.  0.
   558  5.5700  0.  0.
   559  5.5800  0.  0.
   560  5.5900  0.  0.
   561  5.6000  0.  0.
   562  5.6100  0.  0.
   563  5.6200  0.  0.
   564  5.6300  0.  0.
   565  5.6400  0.  0.
   566  5.6500  0.  0.
   567  5.6600  0.  0.
   568  5.6700  0.  0.
   569  5.6800  0.  0.
   570  5.6900  0.  0.
   571  5.7000  0.  0.
   572  5.7100  0.  0.
   573  5.7200  0.  0.
   574  5.7300  0.  0.
   575  5.7400  0.  0.
   576  5.7500  0.  0.
   577  5.7600  0.  0.
   578  5.7700  0.  0.
   579  5.7800  0.  0.
   580  5.7900  0.  0.
   581  5.8000  0.  0.
   582  5.8100  0.  0.
   583  5.8200  0.  0.
   584  5.8300  0.  0.
   585  5.8400  0.  0.
   586  5.8500  0.  0.
   587  5.8600  0.  0.
   588  5.8700  0.  0.
   589  5.8800  0.  0.
   590  5.8900  0.  0.
   591  5.9000  0.  0.
   592  5.9100  0.  0.
   593  5.9200  0.  0.
   594  5.9300  0.  0.
   595  5.9400  0.  0.
   596  5.9500  0.  0.
   597  5.9600  0.  0.
   598  5.9700  0.  0.
   599  5.9800  0.  0.
   600  5.9900  0.  0.
   1                         4.3301067100089E+00  5.2372567928459E-01
     1  0.0000000000000E+00  2.6504499983648E-11 -6.7779651682920E-11
     2  1.0000000000000E-02  2.7408898917277E-04 -2.4338555723784E-04
     3  2.0000000000000E-02  1.0959628710752E-03 -9.7270600478457E-04
     4  3.0000000000000E-02  2.4644442289210E-03 -2.1854575439029E-03
     5  4.0000000000000E-02  4.3775768208077E-03 -3.8774833864883E-03
     6  5.0000000000000E-02  6.8326347095745E-03 -6.0429979439504E-03
     7  6.0000000000000E-02  9.8261349464716E-03 -8.6746204409785E-03
     8  7.0000000000000E-02  1.3353853711369E-02 -1.1763417705674E-02
     9  8.0000000000000E-02  1.7410845785729E-02 -1.5298955819756E-02
    10  9.0000000000000E-02  2.1991467208937E-02 -1.9269360246930E-02
    11  1.0000000000000E-01  2.7089400944108E-02 -2.3661383994823E-02
    12  1.1000000000000E-01  3.2697685356289E-02 -2.8460483306360E-02
    13  1.2000000000000E-01  3.8808745284299E-02 -3.3650900320748E-02