Bi    ONCVPSP-4.0.1  r_core=   2.80987   2.37652   2.71080
     83.0000     15.0000      220801    zatom,zion,pspd
     8      11   2     4   600     0    pspcod,pspxc,lmax,lloc,mmax,r2well
  5.99000000  6.00000000  0.00000000    rchrg fchrg qchrg
     2     2     2     0     0    nproj
     1     1           extension_switch
   0                         4.6850070622335E+00  6.6381492897897E-01
     1  0.0000000000000E+00  6.7968686234821E-12 -1.6534287827774E-11
     2  1.0000000000000E-02  1.8411136366788E-02 -2.9153714027914E-03
     3  2.0000000000000E-02  3.6829143268290E-02 -5.8512351571642E-03
     4  3.0000000000000E-02  5.5260822490319E-02 -8.8279331767736E-03
     5  4.0000000000000E-02  7.3712838669121E-02 -1.1865507312338E-02
     6  5.0000000000000E-02  9.2191651585472E-02 -1.4983551348270E-02
     7  6.0000000000000E-02  1.1070344949662E-01 -1.8201065421332E-02
     8  7.0000000000000E-02  1.2925408384403E-01 -2.1536313649211E-02
     9  8.0000000000000E-02  1.4784900566809E-01 -2.5006685740362E-02
    10  9.0000000000000E-02  1.6649320405256E-01 -2.8628563335975E-02
    11  1.0000000000000E-01  1.8519114691135E-01 -3.2417191810494E-02
    12  1.1000000000000E-01  2.0394672441883E-01 -3.6386558228951E-02
    13  1.2000000000000E-01  2.2276319537172E-01 -4.0549276127630E-02
    14  1.3000000000000E-01  2.4164313675606E-01 -4.4916477749298E-02
    15  1.4000000000000E-01  2.6058839677693E-01 -4.9497714325756E-02
    16  1.5000000000000E-01  2.7960005159152E-01 -5.4300864958779E-02
    17  1.6000000000000E-01  2.9867836596774E-01 -5.9332054606057E-02
    18  1.7000000000000E-01  3.1782275807101E-01 -6.4595581631568E-02
    19  1.8000000000000E-01  3.3703176856173E-01 -7.0093855330135E-02
    20  1.9000000000000E-01  3.5630303416411E-01 -7.5827343784254E-02
    21  2.0000000000000E-01  3.7563326584524E-01 -8.1794532357421E-02
    22  2.1000000000000E-01  3.9501823172018E-01 -8.7991893072943E-02
    23  2.2000000000000E-01  4.1445274477537E-01 -9.4413865070389E-02
    24  2.3000000000000E-01  4.3393065547884E-01 -1.0105284627404E-01
    25  2.4000000000000E-01  4.5344484932122E-01 -1.0789919634907E-01
    26  2.5000000000000E-01  4.7298724930721E-01 -1.1494125096204E-01
    27  2.6000000000000E-01  4.9254882339217E-01 -1.2216534730298E-01
    28  2.7000000000000E-01  5.1211959683431E-01 -1.2955586076705E-01
    29  2.8000000000000E-01  5.3168866940798E-01 -1.3709525263508E-01
    30  2.9000000000000E-01  5.5124423739955E-01 -1.4476412853400E-01
    31  3.0000000000000E-01  5.7077362028340E-01 -1.5254130740123E-01
    32  3.1000000000000E-01  5.9026329195219E-01 -1.6040390062116E-01
    33  3.2000000000000E-01  6.0969891635253E-01 -1.6832740094773E-01
    34  3.3000000000000E-01  6.2906538735559E-01 -1.7628578077478E-01
    35  3.4000000000000E-01  6.4834687267045E-01 -1.8425159926561E-01
    36  3.5000000000000E-01  6.6752686158794E-01 -1.9219611780543E-01
    37  3.6000000000000E-01  6.8658821632360E-01 -2.0008942319532E-01
    38  3.7000000000000E-01  7.0551322671002E-01 -2.0790055796418E-01
    39  3.8000000000000E-01  7.2428366797225E-01 -2.1559765713586E-01
    40  3.9000000000000E-01  7.4288086130428E-01 -2.2314809075336E-01
    41  4.0000000000000E-01  7.6128573695047E-01 -2.3051861142949E-01
    42  4.1000000000000E-01  7.7947889948356E-01 -2.3767550616520E-01
    43  4.2000000000000E-01  7.9744069495916E-01 -2.4458475165208E-01
    44  4.3000000000000E-01  8.1515127961798E-01 -2.5121217225527E-01
    45  4.4000000000000E-01  8.3259068979855E-01 -2.5752359985654E-01
    46  4.5000000000000E-01  8.4973891271765E-01 -2.6348503472516E-01
    47  4.6000000000000E-01  8.6657595777119E-01 -2.6906280657678E-01
    48  4.7000000000000E-01  8.8308192800555E-01 -2.7422373497683E-01
    49  4.8000000000000E-01  8.9923709140897E-01 -2.7893528824624E-01
    50  4.9000000000000E-01  9.1502195167340E-01 -2.8316574003304E-01
    51  5.0000000000000E-01  9.3041731808022E-01 -2.8688432272301E-01
    52  5.1000000000000E-01  9.4540437416783E-01 -2.9006137687723E-01
    53  5.2000000000000E-01  9.5996474484553E-01 -2.9266849590332E-01
    54  5.3000000000000E-01  9.7408056162628E-01 -2.9467866518965E-01
    55  5.4000000000000E-01  9.8773452566097E-01 -2.9606639495980E-01
    56  5.5000000000000E-01  1.0009099682682E+00 -2.9680784613521E-01
    57  5.6000000000000E-01  1.0135909086664E+00 -2.9688094852950E-01
    58  5.7000000000000E-01  1.0257621086316E+00 -2.9626551073683E-01
    59  5.8000000000000E-01  1.0374091238167E+00 -2.9494332111914E-01
    60  5.9000000000000E-01  1.0485183514900E+00 -2.9289823934308E-01
    61  6.0000000000000E-01  1.0590770744670E+00 -2.9011627796630E-01
    62  6.1000000000000E-01  1.0690735010298E+00 -2.8658567362472E-01
    63  6.2000000000000E-01  1.0784968006502E+00 -2.8229694742700E-01
    64  6.3000000000000E-01  1.0873371353549E+00 -2.7724295421912E-01
    65  6.4000000000000E-01  1.0955856865947E+00 -2.7141892044089E-01
    66  6.5000000000000E-01  1.1032346775010E+00 -2.6482247035711E-01
    67  6.6000000000000E-01  1.1102773904423E+00 -2.5745364050793E-01
    68  6.7000000000000E-01  1.1167081798127E+00 -2.4931488228621E-01
    69  6.8000000000000E-01  1.1225224800148E+00 -2.4041105261392E-01
    70  6.9000000000000E-01  1.1277168086217E+00 -2.3074939275376E-01
    71  7.0000000000000E-01  1.1322887647317E+00 -2.2033949535687E-01
    72  7.1000000000000E-01  1.1362370225513E+00 -2.0919325991172E-01
    73  7.2000000000000E-01  1.1395613202720E+00 -1.9732483682312E-01
    74  7.3000000000000E-01  1.1422624443280E+00 -1.8475056041267E-01
    75  7.4000000000000E-01  1.1443422091506E+00 -1.7148887119391E-01
    76  7.5000000000000E-01  1.1458034325552E+00 -1.5756022783462E-01
    77  7.6000000000000E-01  1.1466499069246E+00 -1.4298700927730E-01
    78  7.7000000000000E-01  1.1468863663725E+00 -1.2779340754355E-01
    79  7.8000000000000E-01  1.1465184500936E+00 -1.1200531180179E-01
    80  7.9000000000000E-01  1.1455526621285E+00 -9.5650184327128E-02
    81  8.0000000000000E-01  1.1439963277895E+00 -7.8756929029313E-02
    82  8.1000000000000E-01  1.1418575470128E+00 -6.1355753267886E-02
    83  8.2000000000000E-01  1.1391451449201E+00 -4.3478023713107E-02
    84  8.3000000000000E-01  1.1358686198849E+00 -2.5156117046855E-02
    85  8.4000000000000E-01  1.1320380894169E+00 -6.4232663289444E-03
    86  8.5000000000000E-01  1.1276642341864E+00  1.2686596118761E-02
    87  8.6000000000000E-01  1.1227582405217E+00  3.2138998435895E-02
    88  8.7000000000000E-01  1.1173317417218E+00  5.1899090662647E-02
    89  8.8000000000000E-01  1.1113967585327E+00  7.1931806989428E-02
    90  8.9000000000000E-01  1.1049656391394E+00  9.2202027905024E-02
    91  9.0000000000000E-01  1.0980509990285E+00  1.1267474132794E-01
    92  9.1000000000000E-01  1.0906656610785E+00  1.3331520180878E-01
    93  9.2000000000000E-01  1.0828225962305E+00  1.5408908689880E-01
    94  9.3000000000000E-01  1.0745348650909E+00  1.7496264979288E-01
    95  9.4000000000000E-01  1.0658155608109E+00  1.9590286737288E-01
    96  9.5000000000000E-01  1.0566777535807E+00  2.1687758280069E-01
    97  9.6000000000000E-01  1.0471344370663E+00  2.3785564183767E-01
    98  9.7000000000000E-01  1.0371984771055E+00  2.5880702210070E-01
    99  9.8000000000000E-01  1.0268825629668E+00  2.7970295450193E-01
   100  9.9000000000000E-01  1.0161991614585E+00  3.0051603616148E-01
   101  1.0000000000000E+00  1.0051604741611E+00  3.2122033412902E-01
   102  1.0100000000000E+00  9.9377839803384E-01  3.4179147929985E-01
   103  1.0200000000000E+00  9.8206448962905E-01  3.6220674996604E-01
   104  1.0300000000000E+00  9.7002993312589E-01  3.8244514450054E-01
   105  1.0400000000000E+00  9.5768551237078E-01  4.0248744273337E-01
   106  1.0500000000000E+00  9.4504158708935E-01  4.2231625564294E-01
   107  1.0600000000000E+00  9.3210807340868E-01  4.4191606305236E-01
   108  1.0700000000000E+00  9.1889442880258E-01  4.6127323908903E-01
   109  1.0800000000000E+00  9.0540964154564E-01  4.8037606523714E-01
   110  1.0900000000000E+00  8.9166222473443E-01  4.9921473088410E-01
   111  1.1000000000000E+00  8.7766021490551E-01  5.1778132133629E-01
   112  1.1100000000000E+00  8.6341117525199E-01  5.3606979335238E-01
   113  1.1200000000000E+00  8.4892220341115E-01  5.5407593831772E-01
   114  1.1300000000000E+00  8.3419994376729E-01  5.7179733325674E-01
   115  1.1400000000000E+00  8.1925060418515E-01  5.8923327995422E-01
   116  1.1500000000000E+00  8.0407997706091E-01  6.0638473252868E-01
   117  1.1600000000000E+00  7.8869346455011E-01  6.2325421387232E-01
   118  1.1700000000000E+00  7.7309610780452E-01  6.3984572144110E-01
   119  1.1800000000000E+00  7.5729262002350E-01  6.5616462294581E-01
   120  1.1900000000000E+00  7.4128742310008E-01  6.7221754255908E-01
   121  1.2000000000000E+00  7.2508468761761E-01  6.8801223831494E-01
   122  1.2100000000000E+00  7.0868837592958E-01  7.0355747143489E-01
   123  1.2200000000000E+00  6.9210228803370E-01  7.1886286836935E-01
   124  1.2300000000000E+00  6.7533010993113E-01  7.3393877639243E-01
   125  1.2400000000000E+00  6.5837546414329E-01  7.4879611363423E-01
   126  1.2500000000000E+00  6.4124196204178E-01  7.6344621447520E-01
   127  1.2600000000000E+00  6.2393325763260E-01  7.7790067126299E-01
   128  1.2700000000000E+00  6.0645310242262E-01  7.9217117334249E-01
   129  1.2800000000000E+00  5.8880540098587E-01  8.0626934441500E-01
   130  1.2900000000000E+00  5.7099426683865E-01  8.2020657926120E-01
   131  1.3000000000000E+00  5.5302407822612E-01  8.3399388087645E-01
   132  1.3100000000000E+00  5.3489953341935E-01  8.4764169907382E-01
   133  1.3200000000000E+00  5.1662570511982E-01  8.6115977161194E-01
   134  1.3300000000000E+00  4.9820809356959E-01  8.7455696889935E-01
   135  1.3400000000000E+00  4.7965267796825E-01  8.8784114331636E-01
   136  1.3500000000000E+00  4.6096596580348E-01  9.0101898417779E-01
   137  1.3600000000000E+00  4.4215503971008E-01  9.1409587933665E-01
   138  1.3700000000000E+00  4.2322760148248E-01  9.2707578439935E-01
   139  1.3800000000000E+00  4.0419201287877E-01  9.3996110048721E-01
   140  1.3900000000000E+00  3.8505733286899E-01  9.5275256143820E-01
   141  1.4000000000000E+00  3.6583335099766E-01  9.6544913129541E-01
   142  1.4100000000000E+00  3.4653061654998E-01  9.7804791287678E-01
   143  1.4200000000000E+00  3.2716046323238E-01  9.9054406816278E-01
   144  1.4300000000000E+00  3.0773502910149E-01  1.0029307511765E+00
   145  1.4400000000000E+00  2.8826727150065E-01  1.0151990539635E+00
   146  1.4500000000000E+00  2.6877097679017E-01  1.0273379662074E+00
   147  1.4600000000000E+00  2.4926076468551E-01  1.0393343489422E+00
   148  1.4700000000000E+00  2.2975208704794E-01  1.0511729227447E+00
   149  1.4800000000000E+00  2.1026122100280E-01  1.0628362707052E+00
   150  1.4900000000000E+00  1.9080525629302E-01  1.0743048563968E+00
   151  1.5000000000000E+00  1.7140207680840E-01  1.0855570569687E+00
   152  1.5100000000000E+00  1.5207033626511E-01  1.0965692114098E+00
   153  1.5200000000000E+00  1.3282942804413E-01  1.1073156839318E+00
   154  1.5300000000000E+00  1.1369944923212E-01  1.1177689423355E+00
   155  1.5400000000000E+00  9.4701158943082E-02  1.1278996511329E+00
   156  1.5500000000000E+00  7.5855931033957E-02  1.1376767791067E+00
   157  1.5600000000000E+00  5.7185701361984E-02  1.1470677208998E+00
   158  1.5700000000000E+00  3.8712909765645E-02  1.1560384321422E+00
   159  1.5800000000000E+00  2.0460436984704E-02  1.1645535775316E+00
   160  1.5900000000000E+00  2.4515367673922E-03  1.1725766912077E+00
   161  1.6000000000000E+00 -1.5290236555503E-02  1.1800703486713E+00
   162  1.6100000000000E+00 -3.2741104719505E-02  1.1869963494298E+00
   163  1.6200000000000E+00 -4.9877146059087E-02  1.1933159094718E+00
   164  1.6300000000000E+00 -6.6674379557530E-02  1.1989898626064E+00
   165  1.6400000000000E+00 -8.3108852021715E-02  1.2039788696388E+00
   166  1.6500000000000E+00 -9.9156727965885E-02  1.2082436342938E+00
   167  1.6600000000000E+00 -1.1479438176668E-01  1.2117451247439E+00
   168  1.6700000000000E+00 -1.2999849163238E-01  1.2144447995544E+00
   169  1.6800000000000E+00 -1.4474613491205E-01  1.2163048368106E+00
   170  1.6900000000000E+00 -1.5901488425584E-01  1.2172883651633E+00
   171  1.7000000000000E+00 -1.7278290412538E-01  1.2173596954943E+00
   172  1.7100000000000E+00 -1.8602904714398E-01  1.2164845518871E+00
   173  1.7200000000000E+00 -1.9873294976977E-01  1.2146303005705E+00
   174  1.7300000000000E+00 -2.1087512677062E-01  1.2117661754966E+00
   175  1.7400000000000E+00 -2.2243706397935E-01  1.2078634992166E+00
   176  1.7500000000000E+00 -2.3340130880898E-01  1.2028958977228E+00
   177  1.7600000000000E+00 -2.4375155801292E-01  1.1968395079438E+00
   178  1.7700000000000E+00 -2.5347274218262E-01  1.1896731766004E+00
   179  1.7800000000000E+00 -2.6255110648569E-01  1.1813786491613E+00
   180  1.7900000000000E+00 -2.7097428716096E-01  1.1719407476754E+00
   181  1.8000000000000E+00 -2.7873138330308E-01  1.1613475363009E+00
   182  1.8100000000000E+00 -2.8581302348850E-01  1.1495904734063E+00
   183  1.8200000000000E+00 -2.9221142681571E-01  1.1366645491736E+00
   184  1.8300000000000E+00 -2.9792045795744E-01  1.1225684077018E+00
   185  1.8400000000000E+00 -3.0293567584851E-01  1.1073044526782E+00
   186  1.8500000000000E+00 -3.0725437566242E-01  1.0908789357649E+00
   187  1.8600000000000E+00 -3.1087562376050E-01  1.0733020269269E+00
   188  1.8700000000000E+00 -3.1380028533062E-01  1.0545878660195E+00
   189  1.8800000000000E+00 -3.1603104446786E-01  1.0347545950438E+00
   190  1.8900000000000E+00 -3.1757241648527E-01  1.0138243705737E+00
   191  1.9000000000000E+00 -3.1843075228186E-01  9.9182335596300E-01
   192  1.9100000000000E+00 -3.1861423463398E-01  9.6878169303804E-01
   193  1.9200000000000E+00 -3.1813286631679E-01  9.4473345309384E-01
   194  1.9300000000000E+00 -3.1699845000394E-01  9.1971656711467E-01
   195  1.9400000000000E+00 -3.1522455993554E-01  8.9377273525233E-01
   196  1.9500000000000E+00 -3.1282650538708E-01  8.6694731570440E-01
   197  1.9600000000000E+00 -3.0982128601473E-01  8.3928919324673E-01
   198  1.9700000000000E+00 -3.0622753919466E-01  8.1085062778289E-01
   199  1.9800000000000E+00 -3.0206547951657E-01  7.8168708338349E-01
   200  1.9900000000000E+00 -2.9735683063399E-01  7.5185703839737E-01
   201  2.0000000000000E+00 -2.9212474971444E-01  7.2142177732055E-01
   202  2.0100000000000E+00 -2.8639374477290E-01  6.9044516521281E-01
   203  2.0200000000000E+00 -2.8018958521126E-01  6.5899340555086E-01
   204  2.0300000000000E+00 -2.7353920592452E-01  6.2713478250566E-01
   205  2.0400000000000E+00 -2.6647060536853E-01  5.9493938871616E-01
   206  2.0500000000000E+00 -2.5901273802136E-01  5.6247883972741E-01
   207  2.0600000000000E+00 -2.5119540170039E-01  5.2982597633558E-01
   208  2.0700000000000E+00 -2.4304912022798E-01  4.9705455616015E-01
   209  2.0800000000000E+00 -2.3460502196667E-01  4.6423893583293E-01
   210  2.0900000000000E+00 -2.2589471476934E-01  4.3145374525449E-01
   211  2.1000000000000E+00 -2.1695015787465E-01  3.9877355520886E-01
   212  2.1100000000000E+00 -2.0780353149555E-01  3.6627254081526E-01
   213  2.1200000000000E+00 -1.9848710455722E-01  3.3402414145405E-01
   214  2.1300000000000E+00 -1.8903310211606E-01  3.0210072424262E-01
   215  2.1400000000000E+00 -1.7947356518241E-01  2.7057320737751E-01
   216  2.1500000000000E+00 -1.6984028183587E-01  2.3951108993800E-01
   217  2.1600000000000E+00 -1.6016474329327E-01  2.0898259813149E-01
   218  2.1700000000000E+00 -1.5047807444249E-01  1.7905466148567E-01
   219  2.1800000000000E+00 -1.4081090791562E-01  1.4979255606236E-01
   220  2.1900000000000E+00 -1.3119327237484E-01  1.2125962649084E-01
   221  2.2000000000000E+00 -1.2165448003308E-01  9.3516996636265E-02
   222  2.2100000000000E+00 -1.1222301767047E-01  6.6623292385126E-02
   223  2.2200000000000E+00 -1.0292644092444E-01  4.0634373444812E-02
   224  2.2300000000000E+00 -9.3791272577820E-02  1.5603076679158E-02
   225  2.2400000000000E+00 -8.4842905325302E-02 -8.4210278635660E-03
   226  2.2500000000000E+00 -7.6105509508212E-02 -3.1391866954858E-02
   227  2.2600000000000E+00 -6.7601946284730E-02 -5.3267079007522E-02
   228  2.2700000000000E+00 -5.9353686683221E-02 -7.4008212546106E-02
   229  2.2800000000000E+00 -5.1380736947597E-02 -9.3580907285616E-02
   230  2.2900000000000E+00 -4.3701570561483E-02 -1.1195505681681E-01
   231  2.3000000000000E+00 -3.6333067301615E-02 -1.2910495200193E-01
   232  2.3100000000000E+00 -2.9290459639035E-02 -1.4500940428433E-01
   233  2.3200000000000E+00 -2.2587286771776E-02 -1.5965184818562E-01
   234  2.3300000000000E+00 -1.6235356533053E-02 -1.7302042238723E-01
   235  2.3400000000000E+00 -1.0244715376537E-02 -1.8510802890510E-01
   236  2.3500000000000E+00 -4.6236266136556E-03 -1.9591236994033E-01
   237  2.3600000000000E+00  6.2144297880868E-04 -2.0543596213043E-01
   238  2.3700000000000E+00  5.4858280960960E-03 -2.1368612802223E-01
   239  2.3800000000000E+00  9.9666613415638E-03 -2.2067496469095E-01
   240  2.3900000000000E+00  1.4062861165450E-02 -2.2641928956731E-01
   241  2.4000000000000E+00  1.7775111351004E-02 -2.3094056363385E-01
   242  2.4100000000000E+00  2.1105832132651E-02 -2.3426479225937E-01
   243  2.4200000000000E+00  2.4059143066675E-02 -2.3642240404688E-01
   244  2.4300000000000E+00  2.6640817832530E-02 -2.3744810820978E-01
   245  2.4400000000000E+00  2.8858231175633E-02 -2.3738073108268E-01
   246  2.4500000000000E+00  3.0720298228359E-02 -2.3626303244709E-01
   247  2.4600000000000E+00  3.2237406509090E-02 -2.3414150250978E-01
   248  2.4700000000000E+00  3.3421340924999E-02 -2.3106614044440E-01
   249  2.4800000000000E+00  3.4285202126842E-02 -2.2709021546401E-01
   250  2.4900000000000E+00  3.4843318622192E-02 -2.2227001155444E-01
   251  2.5000000000000E+00  3.5111153075633E-02 -2.1666455704560E-01
   252  2.5100000000000E+00  3.5105203237265E-02 -2.1033534022567E-01
   253  2.5200000000000E+00  3.4842897996017E-02 -2.0334601237140E-01
   254  2.5300000000000E+00  3.4342489068901E-02 -1.9576207958511E-01
   255  2.5400000000000E+00  3.3622938844130E-02 -1.8765058484449E-01
   256  2.5500000000000E+00  3.2703804941277E-02 -1.7907978180940E-01
   257  2.5600000000000E+00  3.1605122058210E-02 -1.7011880192886E-01
   258  2.5700000000000E+00  3.0347281677789E-02 -1.6083731639974E-01
   259  2.5800000000000E+00  2.8950910237587E-02 -1.5130519461585E-01
   260  2.5900000000000E+00  2.7436746364142E-02 -1.4159216073394E-01
   261  2.6000000000000E+00  2.5825517778500E-02 -1.3176745000024E-01
   262  2.6100000000000E+00  2.4137818487649E-02 -1.2189946649348E-01
   263  2.6200000000000E+00  2.2393989284779E-02 -1.1205544984951E-01
   264  2.6300000000000E+00  2.0613985926962E-02 -1.0230111276612E-01
   265  2.6400000000000E+00  1.8817270678101E-02 -9.2700337020196E-02
   266  2.6500000000000E+00  1.7022729746988E-02 -8.3314934066982E-02
   267  2.6600000000000E+00  1.5248488120762E-02 -7.4204156156177E-02
   268  2.6700000000000E+00  1.3511691852161E-02 -6.5424128381964E-02
   269  2.6800000000000E+00  1.1827335223557E-02 -5.7024936532597E-02
   270  2.6900000000000E+00  1.0209524777275E-02 -4.9053698806402E-02
   271  2.7000000000000E+00  8.6732049910261E-03 -4.1558772850321E-02
   272  2.7100000000000E+00  7.2321882531175E-03 -3.4584898802814E-02
   273  2.7200000000000E+00  5.8986783871906E-03 -2.8172006922864E-02
   274  2.7300000000000E+00  4.6835160068389E-03 -2.2355796459135E-02
   275  2.7400000000000E+00  3.5960159121215E-03 -1.7167317102450E-02
   276  2.7500000000000E+00  2.6439296632293E-03 -1.2632859661275E-02
   277  2.7600000000000E+00  1.8333935899732E-03 -8.7738349303735E-03
   278  2.7700000000000E+00  1.1692840357018E-03 -5.6086138870976E-03
   279  2.7800000000000E+00  6.5155196053698E-04 -3.1345957158044E-03
   280  2.7900000000000E+00  2.8528372499925E-04 -1.3776031861870E-03
   281  2.8000000000000E+00  7.8413235249038E-05 -3.8038529859202E-04
   282  2.8100000000000E+00 -3.7936690742935E-07  2.0164896753580E-06
   283  2.8200000000000E+00 -7.9974300791530E-06  3.9097014386780E-05
   284  2.8300  0. -0.
   285  2.8400  0. -0.
   286  2.8500 -0.  0.
   287  2.8600 -0.  0.
   288  2.8700 -0.  0.
   289  2.8800  0.  0.
   290  2.8900  0.  0.
   291  2.9000  0.  0.
   292  2.9100  0.  0.
   293  2.9200  0.  0.
   294  2.9300  0.  0.
   295  2.9400  0.  0.
   296  2.9500  0.  0.
   297  2.9600  0.  0.
   298  2.9700  0.  0.
   299  2.9800  0.  0.
   300  2.9900  0.  0.
   301  3.0000  0.  0.
   302  3.0100  0.  0.
   303  3.0200  0.  0.
   304  3.0300  0.  0.
   305  3.0400  0.  0.
   306  3.0500  0.  0.
   307  3.0600  0.  0.
   308  3.0700  0.  0.
   309  3.0800  0.  0.
   310  3.0900  0.  0.
   311  3.1000  0.  0.
   312  3.1100  0.  0.
   313  3.1200  0.  0.
   314  3.1300  0.  0.
   315  3.1400  0.  0.
   316  3.1500  0.  0.
   317  3.1600  0.  0.
   318  3.1700  0.  0.
   319  3.1800  0.  0.
   320  3.1900  0.  0.
   321  3.2000  0.  0.
   322  3.2100  0.  0.
   323  3.2200  0.  0.
   324  3.2300  0.  0.
   325  3.2400  0.  0.
   326  3.2500  0.  0.
   327  3.2600  0.  0.
   328  3.2700  0.  0.
   329  3.2800  0.  0.
   330  3.2900  0.  0.
   331  3.3000  0.  0.
   332  3.3100  0.  0.
   333  3.3200  0.  0.
   334  3.3300  0.  0.
   335  3.3400  0.  0.
   336  3.3500  0.  0.
   337  3.3600  0.  0.
   338  3.3700  0.  0.
   339  3.3800  0.  0.
   340  3.3900  0.  0.
   341  3.4000  0.  0.
   342  3.4100  0.  0.
   343  3.4200  0.  0.
   344  3.4300  0.  0.
   345  3.4400  0.  0.
   346  3.4500  0.  0.
   347  3.4600  0.  0.
   348  3.4700  0.  0.
   349  3.4800  0.  0.
   350  3.4900  0.  0.
   351  3.5000  0.  0.
   352  3.5100  0.  0.
   353  3.5200  0.  0.
   354  3.5300  0.  0.
   355  3.5400  0.  0.
   356  3.5500  0.  0.
   357  3.5600  0.  0.
   358  3.5700  0.  0.
   359  3.5800  0.  0.
   360  3.5900  0.  0.
   361  3.6000  0.  0.
   362  3.6100  0.  0.
   363  3.6200  0.  0.
   364  3.6300  0.  0.
   365  3.6400  0.  0.
   366  3.6500  0.  0.
   367  3.6600  0.  0.
   368  3.6700  0.  0.
   369  3.6800  0.  0.
   370  3.6900  0.  0.
   371  3.7000  0.  0.
   372  3.7100  0.  0.
   373  3.7200  0.  0.
   374  3.7300  0.  0.
   375  3.7400  0.  0.
   376  3.7500  0.  0.
   377  3.7600  0.  0.
   378  3.7700  0.  0.
   379  3.7800  0.  0.
   380  3.7900  0.  0.
   381  3.8000  0.  0.
   382  3.8100  0.  0.
   383  3.8200  0.  0.
   384  3.8300  0.  0.
   385  3.8400  0.  0.
   386  3.8500  0.  0.
   387  3.8600  0.  0.
   388  3.8700  0.  0.
   389  3.8800  0.  0.
   390  3.8900  0.  0.
   391  3.9000  0.  0.
   392  3.9100  0.  0.
   393  3.9200  0.  0.
   394  3.9300  0.  0.
   395  3.9400  0.  0.
   396  3.9500  0.  0.
   397  3.9600  0.  0.
   398  3.9700  0.  0.
   399  3.9800  0.  0.
   400  3.9900  0.  0.
   401  4.0000  0.  0.
   402  4.0100  0.  0.
   403  4.0200  0.  0.
   404  4.0300  0.  0.
   405  4.0400  0.  0.
   406  4.0500  0.  0.
   407  4.0600  0.  0.
   408  4.0700  0.  0.
   409  4.0800  0.  0.
   410  4.0900  0.  0.
   411  4.1000  0.  0.
   412  4.1100  0.  0.
   413  4.1200  0.  0.
   414  4.1300  0.  0.
   415  4.1400  0.  0.
   416  4.1500  0.  0.
   417  4.1600  0.  0.
   418  4.1700  0.  0.
   419  4.1800  0.  0.
   420  4.1900  0.  0.
   421  4.2000  0.  0.
   422  4.2100  0.  0.
   423  4.2200  0.  0.
   424  4.2300  0.  0.
   425  4.2400  0.  0.
   426  4.2500  0.  0.
   427  4.2600  0.  0.
   428  4.2700  0.  0.
   429  4.2800  0.  0.
   430  4.2900  0.  0.
   431  4.3000  0.  0.
   432  4.3100  0.  0.
   433  4.3200  0.  0.
   434  4.3300  0.  0.
   435  4.3400  0.  0.
   436  4.3500  0.  0.
   437  4.3600  0.  0.
   438  4.3700  0.  0.
   439  4.3800  0.  0.
   440  4.3900  0.  0.
   441  4.4000  0.  0.
   442  4.4100  0.  0.
   443  4.4200  0.  0.
   444  4.4300  0.  0.
   445  4.4400  0.  0.
   446  4.4500  0.  0.
   447  4.4600  0.  0.
   448  4.4700  0.  0.
   449  4.4800  0.  0.
   450  4.4900  0.  0.
   451  4.5000  0.  0.
   452  4.5100  0.  0.
   453  4.5200  0.  0.
   454  4.5300  0.  0.
   455  4.5400  0.  0.
   456  4.5500  0.  0.
   457  4.5600  0.  0.
   458  4.5700  0.  0.
   459  4.5800  0.  0.
   460  4.5900  0.  0.
   461  4.6000  0.  0.
   462  4.6100  0.  0.
   463  4.6200  0.  0.
   464  4.6300  0.  0.
   465  4.6400  0.  0.
   466  4.6500  0.  0.
   467  4.6600  0.  0.
   468  4.6700  0.  0.
   469  4.6800  0.  0.
   470  4.6900  0.  0.
   471  4.7000  0.  0.
   472  4.7100  0.  0.
   473  4.7200  0.  0.
   474  4.7300  0.  0.
   475  4.7400  0.  0.
   476  4.7500  0.  0.
   477  4.7600  0.  0.
   478  4.7700  0.  0.
   479  4.7800  0.  0.
   480  4.7900  0.  0.
   481  4.8000  0.  0.
   482  4.8100  0.  0.
   483  4.8200  0.  0.
   484  4.8300  0.  0.
   485  4.8400  0.  0.
   486  4.8500  0.  0.
   487  4.8600  0.  0.
   488  4.8700  0.  0.
   489  4.8800  0.  0.
   490  4.8900  0.  0.
   491  4.9000  0.  0.
   492  4.9100  0.  0.
   493  4.9200  0.  0.
   494  4.9300  0.  0.
   495  4.9400  0.  0.
   496  4.9500  0.  0.
   497  4.9600  0.  0.
   498  4.9700  0.  0.
   499  4.9800  0.  0.
   500  4.9900  0.  0.
   501  5.0000  0.  0.
   502  5.0100  0.  0.
   503  5.0200  0.  0.
   504  5.0300  0.  0.
   505  5.0400  0.  0.
   506  5.0500  0.  0.
   507  5.0600  0.  0.
   508  5.0700  0.  0.
   509  5.0800  0.  0.
   510  5.0900  0.  0.
   511  5.1000  0.  0.
   512  5.1100  0.  0.
   513  5.1200  0.  0.
   514  5.1300  0.  0.
   515  5.1400  0.  0.
   516  5.1500  0.  0.
   517  5.1600  0.  0.
   518  5.1700  0.  0.
   519  5.1800  0.  0.
   520  5.1900  0.  0.
   521  5.2000  0.  0.
   522  5.2100  0.  0.
   523  5.2200  0.  0.
   524  5.2300  0.  0.
   525  5.2400  0.  0.
   526  5.2500  0.  0.
   527  5.2600  0.  0.
   528  5.2700  0.  0.
   529  5.2800  0.  0.
   530  5.2900  0.  0.
   531  5.3000  0.  0.
   532  5.3100  0.  0.
   533  5.3200  0.  0.
   534  5.3300  0.  0.
   535  5.3400  0.  0.
   536  5.3500  0.  0.
   537  5.3600  0.  0.
   538  5.3700  0.  0.
   539  5.3800  0.  0.
   540  5.3900  0.  0.
   541  5.4000  0.  0.
   542  5.4100  0.  0.
   543  5.4200  0.  0.
   544  5.4300  0.  0.
   545  5.4400  0.  0.
   546  5.4500  0.  0.
   547  5.4600  0.  0.
   548  5.4700  0.  0.
   549  5.4800  0.  0.
   550  5.4900  0.  0.
   551  5.5000  0.  0.
   552  5.5100  0.  0.
   553  5.5200  0.  0.
   554  5.5300  0.  0.
   555  5.5400  0.  0.
   556  5.5500  0.  0.
   557  5.5600  0.  0.
   558  5.5700  0.  0.
   559  5.5800  0.  0.
   560  5.5900  0.  0.
   561  5.6000  0.  0.
   562  5.6100  0.  0.
   563  5.6200  0.  0.
   564  5.6300  0.  0.
   565  5.6400  0.  0.
   566  5.6500  0.  0.
   567  5.6600  0.  0.
   568  5.6700  0.  0.
   569  5.6800  0.  0.
   570  5.6900  0.  0.
   571  5.7000  0.  0.
   572  5.7100  0.  0.
   573  5.7200  0.  0.
   574  5.7300  0.  0.
   575  5.7400  0.  0.
   576  5.7500  0.  0.
   577  5.7600  0.  0.
   578  5.7700  0.  0.
   579  5.7800  0.  0.
   580  5.7900  0.  0.
   581  5.8000  0.  0.
   582  5.8100  0.  0.
   583  5.8200  0.  0.
   584  5.8300  0.  0.
   585  5.8400  0.  0.
   586  5.8500  0.  0.
   587  5.8600  0.  0.
   588  5.8700  0.  0.
   589  5.8800  0.  0.
   590  5.8900  0.  0.
   591  5.9000  0.  0.
   592  5.9100  0.  0.
   593  5.9200  0.  0.
   594  5.9300  0.  0.
   595  5.9400  0.  0.
   596  5.9500  0.  0.
   597  5.9600  0.  0.
   598  5.9700  0.  0.
   599  5.9800  0.  0.
   600  5.9900  0.  0.
   1                         3.9426643024588E+00  4.4627418766813E-01
     1  0.0000000000000E+00 -4.9346438393827E-11  1.3305615290116E-10
     2  1.0000000000000E-02  1.8818638504585E-04  3.7855492100255E-05
     3  2.0000000000000E-02  7.5312417208005E-04  1.5008683374012E-04
     4  3.0000000000000E-02  1.6959453465344E-03  3.3269923866730E-04
     5  4.0000000000000E-02  3.0185235425668E-03  5.7907005220303E-04
     6  5.0000000000000E-02  4.7234546213996E-03  8.8000149032759E-04
     7  6.0000000000000E-02  6.8140296617744E-03  1.2237939868969E-03
     8  7.0000000000000E-02  9.2942005419641E-03  1.5963396651110E-03
     9  8.0000000000000E-02  1.2168538342132E-02  1.9812353162994E-03
    10  9.0000000000000E-02  1.5442184843751E-02  2.3599141398266E-03
    11  1.0000000000000E-01  1.9120797449032E-02  2.7117953733427E-03
    12  1.1000000000000E-01  2.3210487887474E-02  3.0144508233969E-03
    13  1.2000000000000E-01  2.7717755118626E-02  3.2437871934551E-03
    14  1.3000000000000E-01  3.2649412879479E-02  3.3742430001678E-03
    15  1.4000000000000E-01  3.8012512361507E-02  3.3789987702104E-03
    16  1.5000000000000E-01  4.3814260535942E-02  3.2301991195150E-03
    17  1.6000000000000E-01  5.0061934676182E-02  2.8991852350750E-03
    18  1.7000000000000E-01  5.6762793653131E-02  2.3567362070248E-03
    19  1.8000000000000E-01  6.3923986602545E-02  1.5733175960506E-03
    20  1.9000000000000E-01  7.1552459583036E-02  5.1933556855237E-04
    21  2.0000000000000E-01  7.9654860858998E-02 -8.3460511004214E-04
    22  2.1000000000000E-01  8.8237445454439E-02 -2.5174409647988E-03
    23  2.2000000000000E-01  9.7305979631276E-02 -4.5573893448917E-03
    24  2.3000000000000E-01  1.0686564594917E-01 -6.9816893718373E-03
    25  2.4000000000000E-01  1.1692094956329E-01 -9.8163460707975E-03
    26  2.5000000000000E-01  1.2747562641156E-01 -1.3085879440192E-02
    27  2.6000000000000E-01  1.3853255393409E-01 -1.6813080190388E-02
    28  2.7000000000000E-01  1.5009366495421E-01 -2.1018773846770E-02
    29  2.8000000000000E-01  1.6215986533375E-01 -2.5721594866055E-02
    30  2.9000000000000E-01  1.7473095599395E-01 -3.0937772357819E-02
    31  3.0000000000000E-01  1.8780555986870E-01 -3.6680928935809E-02
    32  3.1000000000000E-01  2.0138105432837E-01 -4.2961894146470E-02
    33  3.2000000000000E-01  2.1545350958035E-01 -4.9788533835463E-02
    34  3.3000000000000E-01  2.3001763351741E-01 -5.7165596717274E-02