B     ONCVPSP-3.3.1  r_core=   1.12502   1.12502
      5.0000      3.0000      180329    zatom,zion,pspd
     8       2   1     4   600     0    pspcod,pspxc,lmax,lloc,mmax,r2well
  5.99000000  0.00000000  0.00000000    rchrg fchrg qchrg
     2     2     0     0     0    nproj
     1     1           extension_switch
   0                         7.6519033364352e+00  1.9667507200843e+00
     1  0.0000000000000e+00 -1.3737659745883e-08 -1.6096342925209e-08
     2  1.0000000000000e-02  1.9056780373387e-02  8.8395287937316e-02
     3  2.0000000000000e-02  3.7404637507862e-02  1.7590306828020e-01
     4  3.0000000000000e-02  5.4347045816156e-02  2.6165033967593e-01
     5  4.0000000000000e-02  6.9212061517325e-02  3.4479286362940e-01
     6  5.0000000000000e-02  8.1364083375746e-02  4.2452892606014e-01
     7  6.0000000000000e-02  9.0214987203402e-02  5.0011236668418e-01
     8  7.0000000000000e-02  9.5234441808288e-02  5.7086465141204e-01
     9  8.0000000000000e-02  9.5959227809416e-02  6.3618577905061e-01
    10  9.0000000000000e-02  9.2001397489725e-02  6.9556383322241e-01
    11  1.0000000000000e-01  8.3055133349167e-02  7.4858301325190e-01
    12  1.1000000000000e-01  6.8902184934710e-02  7.9493000344150e-01
    13  1.2000000000000e-01  4.9415787507053e-02  8.3439856825543e-01
    14  1.3000000000000e-01  2.4562991761963e-02  8.6689229098455e-01
    15  1.4000000000000e-01 -5.5946392572022e-03  8.9242540499355e-01
    16  1.5000000000000e-01 -4.0901982184748e-02  9.1112169913299e-01
    17  1.6000000000000e-01 -8.1112942324603e-02  9.2321151180220e-01
    18  1.7000000000000e-01 -1.2589463963812e-01  9.2902686093126e-01
    19  1.8000000000000e-01 -1.7483312431573e-01  9.2899478927143e-01
    20  1.9000000000000e-01 -2.2744052809486e-01  9.2362903530869e-01
    21  2.0000000000000e-01 -2.8316353251550e-01  9.1352016932991e-01
    22  2.1000000000000e-01 -3.4139301220524e-01  8.9932436118584e-01
    23  2.2000000000000e-01 -4.0147469044924e-01  8.8175097065197e-01
    24  2.3000000000000e-01 -4.6272062608022e-01  8.6154917257188e-01
    25  2.4000000000000e-01 -5.2442133543501e-01  8.3949384681069e-01
    26  2.5000000000000e-01 -5.8585834103239e-01  8.1637097713529e-01
    27  2.6000000000000e-01 -6.4631692995712e-01  7.9296281321302e-01
    28  2.7000000000000e-01 -7.0509889984094e-01  7.7003305579846e-01
    29  2.8000000000000e-01 -7.6153506893001e-01  7.4831232672552e-01
    30  2.9000000000000e-01 -8.1499732906109e-01  7.2848418248878e-01
    31  3.0000000000000e-01 -8.6491002642723e-01  7.1117192299702e-01
    32  3.1000000000000e-01 -9.1076046472364e-01  6.9692643559973e-01
    33  3.2000000000000e-01 -9.5210833849681e-01  6.8621529887732e-01
    34  3.3000000000000e-01 -9.8859392108231e-01  6.7941335117370e-01
    35  3.4000000000000e-01 -1.0199448511669e+00  6.7679490572210e-01
    36  3.5000000000000e-01 -1.0459813844528e+00  6.7852776781825e-01
    37  3.6000000000000e-01 -1.0666200017906e+00  6.8466918023741e-01
    38  3.7000000000000e-01 -1.0818752920993e+00  6.9516379142010e-01
    39  3.8000000000000e-01 -1.0918600569869e+00  7.0984370736776e-01
    40  3.9000000000000e-01 -1.0967836137658e+00  7.2843065321736e-01
    41  4.0000000000000e-01 -1.0969483040567e+00  7.5054023466948e-01
    42  4.1000000000000e-01 -1.0927442458974e+00  7.7568825339271e-01
    43  4.2000000000000e-01 -1.0846423977241e+00  8.0329899481192e-01
    44  4.3000000000000e-01 -1.0731860322728e+00  8.3271537188823e-01
    45  4.4000000000000e-01 -1.0589807468677e+00  8.6321077519342e-01
    46  4.5000000000000e-01 -1.0426831632467e+00  8.9400244832244e-01
    47  4.6000000000000e-01 -1.0249884945726e+00  9.2426617901380e-01
    48  4.7000000000000e-01 -1.0066171791670e+00  9.5315207073974e-01
    49  4.8000000000000e-01 -9.8830079940735e-01  9.7980113744342e-01
    50  4.9000000000000e-01 -9.7076751979003e-01  1.0033624459422e+00
    51  5.0000000000000e-01 -9.5472729012397e-01  1.0230105165997e+00
    52  5.1000000000000e-01 -9.4085706790929e-01  1.0379626835013e+00
    53  5.2000000000000e-01 -9.2978631802614e-01  1.0474961107306e+00
    54  5.3000000000000e-01 -9.2208304778787e-01  1.0509641615703e+00
    55  5.4000000000000e-01 -9.1824063114175e-01  1.0478118226169e+00
    56  5.5000000000000e-01 -9.1866566736010e-01  1.0375898948579e+00
    57  5.6000000000000e-01 -9.2366710704554e-01  1.0199676786148e+00
    58  5.7000000000000e-01 -9.3344686176446e-01  9.9474389878944e-01
    59  5.8000000000000e-01 -9.4809209348795e-01  9.6185564064476e-01
    60  5.9000000000000e-01 -9.6756935625416e-01  9.2138509439909e-01
    61  6.0000000000000e-01 -9.9172073582891e-01  8.7356393833329e-01
    62  6.1000000000000e-01 -1.0202621034528e+00  8.1877522510159e-01
    63  6.2000000000000e-01 -1.0527835681002e+00  7.5755267324209e-01
    64  6.3000000000000e-01 -1.0887521778970e+00  6.9057730565998e-01
    65  6.4000000000000e-01 -1.1275168863699e+00  6.1867141803045e-01
    66  6.5000000000000e-01 -1.1683157635185e+00  5.4278990205517e-01
    67  6.6000000000000e-01 -1.2102853955163e+00  4.6400899107613e-01
    68  6.7000000000000e-01 -1.2524723812097e+00  3.8351253746328e-01
    69  6.8000000000000e-01 -1.2938467988357e+00  3.0257597203936e-01
    70  6.9000000000000e-01 -1.3333174828026e+00  2.2254813527078e-01
    71  7.0000000000000e-01 -1.3697489190868e+00  1.4483120671172e-01
    72  7.1000000000000e-01 -1.4019795387758e+00  7.0858993269648e-02
    73  7.2000000000000e-01 -1.4288411633996e+00  2.0738672441355e-03
    74  7.3000000000000e-01 -1.4491793329792e+00 -6.0097328271777e-02
    75  7.4000000000000e-01 -1.4618742290413e+00 -1.1426806714917e-01
    76  7.5000000000000e-01 -1.4658618901422e+00 -1.5911726446436e-01
    77  7.6000000000000e-01 -1.4601554071926e+00 -1.9341436858375e-01
    78  7.7000000000000e-01 -1.4438657802490e+00 -2.1604404594612e-01
    79  7.8000000000000e-01 -1.4162221175109e+00 -2.2603008241759e-01
    80  7.9000000000000e-01 -1.3765908612309e+00 -2.2255812987239e-01
    81  8.0000000000000e-01 -1.3244937339769e+00 -2.0499693704405e-01
    82  8.1000000000000e-01 -1.2596241121777e+00 -1.7291771967743e-01
    83  8.2000000000000e-01 -1.1818615519578e+00 -1.2611134638692e-01
    84  8.3000000000000e-01 -1.0912842147008e+00 -6.4603043133670e-02
    85  8.4000000000000e-01 -9.8817896628624e-01  1.1335649479242e-02
    86  8.5000000000000e-01 -8.7304895415431e-01  1.0117789625012e-01
    87  8.6000000000000e-01 -7.4661849985579e-01  2.0413575540223e-01
    88  8.7000000000000e-01 -6.0983518106761e-01  3.1915768240758e-01
    89  8.8000000000000e-01 -4.6386901567107e-01  4.4492945191265e-01
    90  8.9000000000000e-01 -3.1010870084898e-01  5.7987855250926e-01
    91  9.0000000000000e-01 -1.5015490167013e-01  7.2218206018625e-01
    92  9.1000000000000e-01  1.4189374329660e-02  8.6977794677594e-01
    93  9.2000000000000e-01  1.8093123809925e-01  1.0203797302902e+00
    94  9.3000000000000e-01  3.4790309584326e-01  1.1714943254755e+00
    95  9.4000000000000e-01  5.1278038202951e-01  1.3204429059760e+00
    96  9.5000000000000e-01  6.7310165091546e-01  1.4643845446029e+00
    97  9.6000000000000e-01  8.2629079380592e-01  1.6003423569327e+00
    98  9.7000000000000e-01  9.6968111658049e-01  1.7252318350072e+00
    99  9.8000000000000e-01  1.1005409832669e+00  1.8358910240723e+00
   100  9.9000000000000e-01  1.2161007068358e+00  1.9291121663578e+00
   101  1.0000000000000e+00  1.3135803479561e+00  2.0016744118753e+00
   102  1.0100000000000e+00  1.3902180668807e+00  2.0503771779198e+00
   103  1.0200000000000e+00  1.4432986630472e+00  2.0720737265377e+00
   104  1.0300000000000e+00  1.4701819318585e+00  2.0637045232442e+00
   105  1.0400000000000e+00  1.4683304675139e+00  2.0223299396117e+00
   106  1.0500000000000e+00  1.4353365465183e+00  1.9451618691865e+00
   107  1.0600000000000e+00  1.3689477368592e+00  1.8295938384296e+00
   108  1.0700000000000e+00  1.2670908932487e+00  1.6732292125707e+00
   109  1.0800000000000e+00  1.1278942215057e+00  1.4739071230159e+00
   110  1.0900000000000e+00  9.4879797957728e-01  1.2285850140933e+00
   111  1.1000000000000e+00  7.3376266231614e-01  9.4238772001559e-01
   112  1.1100000000000e+00  4.7513999352056e-01  6.0583744593542e-01
   113  1.1200000000000e+00  1.3013338536101e-01  1.6520420178750e-01
   114  1.1300000000000e+00 -3.7034899844721e-02 -4.7058563655146e-02
   115  1.1400000000000e+00  3.7152201207079e-03  4.7261364641015e-03
   116  1.1500000000000e+00  3.9482659460130e-03  5.0206870596800e-03
   117  1.1600000000000e+00 -1.1461847457578e-03 -1.4616474741196e-03
   118  1.1700000000000e+00 -4.5321955172349e-07 -4.2418127974297e-07
   119  1.1800000000000e+00 -2.5653810526019e-10 -2.4010142849816e-10
   120  1.1900000000000e+00  0.0000000000000e+00  0.0000000000000e+00
   121  1.2000000000000e+00  0.0000000000000e+00  0.0000000000000e+00
   122  1.2100000000000e+00  0.0000000000000e+00  0.0000000000000e+00
   123  1.2200000000000e+00  0.0000000000000e+00  0.0000000000000e+00
   124  1.2300000000000e+00  0.0000000000000e+00  0.0000000000000e+00
   125  1.2400000000000e+00  0.0000000000000e+00  0.0000000000000e+00
   126  1.2500000000000e+00  0.0000000000000e+00  0.0000000000000e+00
   127  1.2600000000000e+00  0.0000000000000e+00  0.0000000000000e+00
   128  1.2700000000000e+00  0.0000000000000e+00  0.0000000000000e+00
   129  1.2800000000000e+00  0.0000000000000e+00  0.0000000000000e+00
   130  1.2900000000000e+00  0.0000000000000e+00  0.0000000000000e+00
   131  1.3000000000000e+00  0.0000000000000e+00  0.0000000000000e+00
   132  1.3100000000000e+00  0.0000000000000e+00  0.0000000000000e+00
   133  1.3200000000000e+00  0.0000000000000e+00  0.0000000000000e+00
   134  1.3300000000000e+00  0.0000000000000e+00  0.0000000000000e+00
   135  1.3400000000000e+00  0.0000000000000e+00  0.0000000000000e+00
   136  1.3500000000000e+00  0.0000000000000e+00  0.0000000000000e+00
   137  1.3600000000000e+00  0.0000000000000e+00  0.0000000000000e+00
   138  1.3700000000000e+00  0.0000000000000e+00  0.0000000000000e+00
   139  1.3800000000000e+00  0.0000000000000e+00  0.0000000000000e+00
   140  1.3900000000000e+00  0.0000000000000e+00  0.0000000000000e+00
   141  1.4000000000000e+00  0.0000000000000e+00  0.0000000000000e+00
   142  1.4100000000000e+00  0.0000000000000e+00  0.0000000000000e+00
   143  1.4200000000000e+00  0.0000000000000e+00  0.0000000000000e+00
   144  1.4300000000000e+00  0.0000000000000e+00  0.0000000000000e+00
   145  1.4400000000000e+00  0.0000000000000e+00  0.0000000000000e+00
   146  1.4500000000000e+00  0.0000000000000e+00  0.0000000000000e+00
   147  1.4600000000000e+00  0.0000000000000e+00  0.0000000000000e+00
   148  1.4700000000000e+00  0.0000000000000e+00  0.0000000000000e+00
   149  1.4800000000000e+00  0.0000000000000e+00  0.0000000000000e+00
   150  1.4900000000000e+00  0.0000000000000e+00  0.0000000000000e+00
   151  1.5000000000000e+00  0.0000000000000e+00  0.0000000000000e+00
   152  1.5100000000000e+00  0.0000000000000e+00  0.0000000000000e+00
   153  1.5200000000000e+00  0.0000000000000e+00  0.0000000000000e+00
   154  1.5300000000000e+00  0.0000000000000e+00  0.0000000000000e+00
   155  1.5400000000000e+00  0.0000000000000e+00  0.0000000000000e+00
   156  1.5500000000000e+00  0.0000000000000e+00  0.0000000000000e+00
   157  1.5600000000000e+00  0.0000000000000e+00  0.0000000000000e+00
   158  1.5700000000000e+00  0.0000000000000e+00  0.0000000000000e+00
   159  1.5800000000000e+00  0.0000000000000e+00  0.0000000000000e+00
   160  1.5900000000000e+00  0.0000000000000e+00  0.0000000000000e+00
   161  1.6000000000000e+00  0.0000000000000e+00  0.0000000000000e+00
   162  1.6100000000000e+00  0.0000000000000e+00  0.0000000000000e+00
   163  1.6200000000000e+00  0.0000000000000e+00  0.0000000000000e+00
   164  1.6300000000000e+00  0.0000000000000e+00  0.0000000000000e+00
   165  1.6400000000000e+00  0.0000000000000e+00  0.0000000000000e+00
   166  1.6500000000000e+00  0.0000000000000e+00  0.0000000000000e+00
   167  1.6600000000000e+00  0.0000000000000e+00  0.0000000000000e+00
   168  1.6700000000000e+00  0.0000000000000e+00  0.0000000000000e+00
   169  1.6800000000000e+00  0.0000000000000e+00  0.0000000000000e+00
   170  1.6900000000000e+00  0.0000000000000e+00  0.0000000000000e+00
   171  1.7000000000000e+00  0.0000000000000e+00  0.0000000000000e+00
   172  1.7100000000000e+00  0.0000000000000e+00  0.0000000000000e+00
   173  1.7200000000000e+00  0.0000000000000e+00  0.0000000000000e+00
   174  1.7300000000000e+00  0.0000000000000e+00  0.0000000000000e+00
   175  1.7400000000000e+00  0.0000000000000e+00  0.0000000000000e+00
   176  1.7500000000000e+00  0.0000000000000e+00  0.0000000000000e+00
   177  1.7600000000000e+00  0.0000000000000e+00  0.0000000000000e+00
   178  1.7700000000000e+00  0.0000000000000e+00  0.0000000000000e+00
   179  1.7800000000000e+00  0.0000000000000e+00  0.0000000000000e+00
   180  1.7900000000000e+00  0.0000000000000e+00  0.0000000000000e+00
   181  1.8000000000000e+00  0.0000000000000e+00  0.0000000000000e+00
   182  1.8100000000000e+00  0.0000000000000e+00  0.0000000000000e+00
   183  1.8200000000000e+00  0.0000000000000e+00  0.0000000000000e+00
   184  1.8300000000000e+00  0.0000000000000e+00  0.0000000000000e+00
   185  1.8400000000000e+00  0.0000000000000e+00  0.0000000000000e+00
   186  1.8500000000000e+00  0.0000000000000e+00  0.0000000000000e+00
   187  1.8600000000000e+00  0.0000000000000e+00  0.0000000000000e+00
   188  1.8700000000000e+00  0.0000000000000e+00  0.0000000000000e+00
   189  1.8800000000000e+00  0.0000000000000e+00  0.0000000000000e+00
   190  1.8900000000000e+00  0.0000000000000e+00  0.0000000000000e+00
   191  1.9000000000000e+00  0.0000000000000e+00  0.0000000000000e+00
   192  1.9100000000000e+00  0.0000000000000e+00  0.0000000000000e+00
   193  1.9200000000000e+00  0.0000000000000e+00  0.0000000000000e+00
   194  1.9300000000000e+00  0.0000000000000e+00  0.0000000000000e+00
   195  1.9400000000000e+00  0.0000000000000e+00  0.0000000000000e+00
   196  1.9500000000000e+00  0.0000000000000e+00  0.0000000000000e+00
   197  1.9600000000000e+00  0.0000000000000e+00  0.0000000000000e+00
   198  1.9700000000000e+00  0.0000000000000e+00  0.0000000000000e+00
   199  1.9800000000000e+00  0.0000000000000e+00  0.0000000000000e+00
   200  1.9900000000000e+00  0.0000000000000e+00  0.0000000000000e+00
   201  2.0000000000000e+00  0.0000000000000e+00  0.0000000000000e+00
   202  2.0100000000000e+00  0.0000000000000e+00  0.0000000000000e+00
   203  2.0200000000000e+00  0.0000000000000e+00  0.0000000000000e+00
   204  2.0300000000000e+00  0.0000000000000e+00  0.0000000000000e+00
   205  2.0400000000000e+00  0.0000000000000e+00  0.0000000000000e+00
   206  2.0500000000000e+00  0.0000000000000e+00  0.0000000000000e+00
   207  2.0600000000000e+00  0.0000000000000e+00  0.0000000000000e+00
   208  2.0700000000000e+00  0.0000000000000e+00  0.0000000000000e+00
   209  2.0800000000000e+00  0.0000000000000e+00  0.0000000000000e+00
   210  2.0900000000000e+00  0.0000000000000e+00  0.0000000000000e+00
   211  2.1000000000000e+00  0.0000000000000e+00  0.0000000000000e+00
   212  2.1100000000000e+00  0.0000000000000e+00  0.0000000000000e+00
   213  2.1200000000000e+00  0.0000000000000e+00  0.0000000000000e+00
   214  2.1300000000000e+00  0.0000000000000e+00  0.0000000000000e+00
   215  2.1400000000000e+00  0.0000000000000e+00  0.0000000000000e+00
   216  2.1500000000000e+00  0.0000000000000e+00  0.0000000000000e+00
   217  2.1600000000000e+00  0.0000000000000e+00  0.0000000000000e+00
   218  2.1700000000000e+00  0.0000000000000e+00  0.0000000000000e+00
   219  2.1800000000000e+00  0.0000000000000e+00  0.0000000000000e+00
   220  2.1900000000000e+00  0.0000000000000e+00  0.0000000000000e+00
   221  2.2000000000000e+00  0.0000000000000e+00  0.0000000000000e+00
   222  2.2100000000000e+00  0.0000000000000e+00  0.0000000000000e+00
   223  2.2200000000000e+00  0.0000000000000e+00  0.0000000000000e+00
   224  2.2300000000000e+00  0.0000000000000e+00  0.0000000000000e+00
   225  2.2400000000000e+00  0.0000000000000e+00  0.0000000000000e+00
   226  2.2500000000000e+00  0.0000000000000e+00  0.0000000000000e+00
   227  2.2600000000000e+00  0.0000000000000e+00  0.0000000000000e+00
   228  2.2700000000000e+00  0.0000000000000e+00  0.0000000000000e+00
   229  2.2800000000000e+00  0.0000000000000e+00  0.0000000000000e+00
   230  2.2900000000000e+00  0.0000000000000e+00  0.0000000000000e+00
   231  2.3000000000000e+00  0.0000000000000e+00  0.0000000000000e+00
   232  2.3100000000000e+00  0.0000000000000e+00  0.0000000000000e+00
   233  2.3200000000000e+00  0.0000000000000e+00  0.0000000000000e+00
   234  2.3300000000000e+00  0.0000000000000e+00  0.0000000000000e+00
   235  2.3400000000000e+00  0.0000000000000e+00  0.0000000000000e+00
   236  2.3500000000000e+00  0.0000000000000e+00  0.0000000000000e+00
   237  2.3600000000000e+00  0.0000000000000e+00  0.0000000000000e+00
   238  2.3700000000000e+00  0.0000000000000e+00  0.0000000000000e+00
   239  2.3800000000000e+00  0.0000000000000e+00  0.0000000000000e+00
   240  2.3900000000000e+00  0.0000000000000e+00  0.0000000000000e+00
   241  2.4000000000000e+00  0.0000000000000e+00  0.0000000000000e+00
   242  2.4100000000000e+00  0.0000000000000e+00  0.0000000000000e+00
   243  2.4200000000000e+00  0.0000000000000e+00  0.0000000000000e+00
   244  2.4300000000000e+00  0.0000000000000e+00  0.0000000000000e+00
   245  2.4400000000000e+00  0.0000000000000e+00  0.0000000000000e+00
   246  2.4500000000000e+00  0.0000000000000e+00  0.0000000000000e+00
   247  2.4600000000000e+00  0.0000000000000e+00  0.0000000000000e+00
   248  2.4700000000000e+00  0.0000000000000e+00  0.0000000000000e+00
   249  2.4800000000000e+00  0.0000000000000e+00  0.0000000000000e+00
   250  2.4900000000000e+00  0.0000000000000e+00  0.0000000000000e+00
   251  2.5000000000000e+00  0.0000000000000e+00  0.0000000000000e+00
   252  2.5100000000000e+00  0.0000000000000e+00  0.0000000000000e+00
   253  2.5200000000000e+00  0.0000000000000e+00  0.0000000000000e+00
   254  2.5300000000000e+00  0.0000000000000e+00  0.0000000000000e+00
   255  2.5400000000000e+00  0.0000000000000e+00  0.0000000000000e+00
   256  2.5500000000000e+00  0.0000000000000e+00  0.0000000000000e+00
   257  2.5600000000000e+00  0.0000000000000e+00  0.0000000000000e+00
   258  2.5700000000000e+00  0.0000000000000e+00  0.0000000000000e+00
   259  2.5800000000000e+00  0.0000000000000e+00  0.0000000000000e+00
   260  2.5900000000000e+00  0.0000000000000e+00  0.0000000000000e+00
   261  2.6000000000000e+00  0.0000000000000e+00  0.0000000000000e+00
   262  2.6100000000000e+00  0.0000000000000e+00  0.0000000000000e+00
   263  2.6200000000000e+00  0.0000000000000e+00  0.0000000000000e+00
   264  2.6300000000000e+00  0.0000000000000e+00  0.0000000000000e+00
   265  2.6400000000000e+00  0.0000000000000e+00  0.0000000000000e+00
   266  2.6500000000000e+00  0.0000000000000e+00  0.0000000000000e+00
   267  2.6600000000000e+00  0.0000000000000e+00  0.0000000000000e+00
   268  2.6700000000000e+00  0.0000000000000e+00  0.0000000000000e+00
   269  2.6800000000000e+00  0.0000000000000e+00  0.0000000000000e+00
   270  2.6900000000000e+00  0.0000000000000e+00  0.0000000000000e+00
   271  2.7000000000000e+00  0.0000000000000e+00  0.0000000000000e+00
   272  2.7100000000000e+00  0.0000000000000e+00  0.0000000000000e+00
   273  2.7200000000000e+00  0.0000000000000e+00  0.0000000000000e+00
   274  2.7300000000000e+00  0.0000000000000e+00  0.0000000000000e+00
   275  2.7400000000000e+00  0.0000000000000e+00  0.0000000000000e+00
   276  2.7500000000000e+00  0.0000000000000e+00  0.0000000000000e+00
   277  2.7600000000000e+00  0.0000000000000e+00  0.0000000000000e+00
   278  2.7700000000000e+00  0.0000000000000e+00  0.0000000000000e+00
   279  2.7800000000000e+00  0.0000000000000e+00  0.0000000000000e+00
   280  2.7900000000000e+00  0.0000000000000e+00  0.0000000000000e+00
   281  2.8000000000000e+00  0.0000000000000e+00  0.0000000000000e+00
   282  2.8100000000000e+00  0.0000000000000e+00  0.0000000000000e+00
   283  2.8200000000000e+00  0.0000000000000e+00  0.0000000000000e+00
   284  2.8300000000000e+00  0.0000000000000e+00  0.0000000000000e+00
   285  2.8400000000000e+00  0.0000000000000e+00  0.0000000000000e+00
   286  2.8500000000000e+00  0.0000000000000e+00  0.0000000000000e+00
   287  2.8600000000000e+00  0.0000000000000e+00  0.0000000000000e+00
   288  2.8700000000000e+00  0.0000000000000e+00  0.0000000000000e+00
   289  2.8800000000000e+00  0.0000000000000e+00  0.0000000000000e+00
   290  2.8900000000000e+00  0.0000000000000e+00  0.0000000000000e+00
   291  2.9000000000000e+00  0.0000000000000e+00  0.0000000000000e+00
   292  2.9100000000000e+00  0.0000000000000e+00  0.0000000000000e+00
   293  2.9200000000000e+00  0.0000000000000e+00  0.0000000000000e+00
   294  2.9300000000000e+00  0.0000000000000e+00  0.0000000000000e+00
   295  2.9400000000000e+00  0.0000000000000e+00  0.0000000000000e+00
   296  2.9500000000000e+00  0.0000000000000e+00  0.0000000000000e+00
   297  2.9600000000000e+00  0.0000000000000e+00  0.0000000000000e+00
   298  2.9700000000000e+00  0.0000000000000e+00  0.0000000000000e+00
   299  2.9800000000000e+00  0.0000000000000e+00  0.0000000000000e+00
   300  2.9900000000000e+00  0.0000000000000e+00  0.0000000000000e+00
   301  3.0000000000000e+00  0.0000000000000e+00  0.0000000000000e+00
   302  3.0100000000000e+00  0.0000000000000e+00  0.0000000000000e+00
   303  3.0200000000000e+00  0.0000000000000e+00  0.0000000000000e+00
   304  3.0300000000000e+00  0.0000000000000e+00  0.0000000000000e+00
   305  3.0400000000000e+00  0.0000000000000e+00  0.0000000000000e+00
   306  3.0500000000000e+00  0.0000000000000e+00  0.0000000000000e+00
   307  3.0600000000000e+00  0.0000000000000e+00  0.0000000000000e+00
   308  3.0700000000000e+00  0.0000000000000e+00  0.0000000000000e+00
   309  3.0800000000000e+00  0.0000000000000e+00  0.0000000000000e+00
   310  3.0900000000000e+00  0.0000000000000e+00  0.0000000000000e+00
   311  3.1000000000000e+00  0.0000000000000e+00  0.0000000000000e+00
   312  3.1100000000000e+00  0.0000000000000e+00  0.0000000000000e+00
   313  3.1200000000000e+00  0.0000000000000e+00  0.0000000000000e+00
   314  3.1300000000000e+00  0.0000000000000e+00  0.0000000000000e+00
   315  3.1400000000000e+00  0.0000000000000e+00  0.0000000000000e+00
   316  3.1500000000000e+00  0.0000000000000e+00  0.0000000000000e+00
   317  3.1600000000000e+00  0.0000000000000e+00  0.0000000000000e+00
   318  3.1700000000000e+00  0.0000000000000e+00  0.0000000000000e+00
   319  3.1800000000000e+00  0.0000000000000e+00  0.0000000000000e+00
   320  3.1900000000000e+00  0.0000000000000e+00  0.0000000000000e+00
   321  3.2000000000000e+00  0.0000000000000e+00  0.0000000000000e+00
   322  3.2100000000000e+00  0.0000000000000e+00  0.0000000000000e+00
   323  3.2200000000000e+00  0.0000000000000e+00  0.0000000000000e+00
   324  3.2300000000000e+00  0.0000000000000e+00  0.0000000000000e+00
   325  3.2400000000000e+00  0.0000000000000e+00  0.0000000000000e+00
   326  3.2500000000000e+00  0.0000000000000e+00  0.0000000000000e+00
   327  3.2600000000000e+00  0.0000000000000e+00  0.0000000000000e+00
   328  3.2700000000000e+00  0.0000000000000e+00  0.0000000000000e+00
   329  3.2800000000000e+00  0.0000000000000e+00  0.0000000000000e+00
   330  3.2900000000000e+00  0.0000000000000e+00  0.0000000000000e+00
   331  3.3000000000000e+00  0.0000000000000e+00  0.0000000000000e+00
   332  3.3100000000000e+00  0.0000000000000e+00  0.0000000000000e+00
   333  3.3200000000000e+00  0.0000000000000e+00  0.0000000000000e+00
   334  3.3300000000000e+00  0.0000000000000e+00  0.0000000000000e+00
   335  3.3400000000000e+00  0.0000000000000e+00  0.0000000000000e+00
   336  3.3500000000000e+00  0.0000000000000e+00  0.0000000000000e+00
   337  3.3600000000000e+00  0.0000000000000e+00  0.0000000000000e+00
   338  3.3700000000000e+00  0.0000000000000e+00  0.0000000000000e+00
   339  3.3800000000000e+00  0.0000000000000e+00  0.0000000000000e+00
   340  3.3900000000000e+00  0.0000000000000e+00  0.0000000000000e+00
   341  3.4000000000000e+00  0.0000000000000e+00  0.0000000000000e+00
   342  3.4100000000000e+00  0.0000000000000e+00  0.0000000000000e+00
   343  3.4200000000000e+00  0.0000000000000e+00  0.0000000000000e+00
   344  3.4300000000000e+00  0.0000000000000e+00  0.0000000000000e+00
   345  3.4400000000000e+00  0.0000000000000e+00  0.0000000000000e+00
   346  3.4500000000000e+00  0.0000000000000e+00  0.0000000000000e+00
   347  3.4600000000000e+00  0.0000000000000e+00  0.0000000000000e+00
   348  3.4700000000000e+00  0.0000000000000e+00  0.0000000000000e+00
   349  3.4800000000000e+00  0.0000000000000e+00  0.0000000000000e+00
   350  3.4900000000000e+00  0.0000000000000e+00  0.0000000000000e+00
   351  3.5000000000000e+00  0.0000000000000e+00  0.0000000000000e+00
   352  3.5100000000000e+00  0.0000000000000e+00  0.0000000000000e+00
   353  3.5200000000000e+00  0.0000000000000e+00  0.0000000000000e+00
   354  3.5300000000000e+00  0.0000000000000e+00  0.0000000000000e+00
   355  3.5400000000000e+00  0.0000000000000e+00  0.0000000000000e+00
   356  3.5500000000000e+00  0.0000000000000e+00  0.0000000000000e+00
   357  3.5600000000000e+00  0.0000000000000e+00  0.0000000000000e+00
   358  3.5700000000000e+00  0.0000000000000e+00  0.0000000000000e+00
   359  3.5800000000000e+00  0.0000000000000e+00  0.0000000000000e+00
   360  3.5900000000000e+00  0.0000000000000e+00  0.0000000000000e+00
   361  3.6000000000000e+00  0.0000000000000e+00  0.0000000000000e+00
   362  3.6100000000000e+00  0.0000000000000e+00  0.0000000000000e+00
   363  3.6200000000000e+00  0.0000000000000e+00  0.0000000000000e+00
   364  3.6300000000000e+00  0.0000000000000e+00  0.0000000000000e+00
   365  3.6400000000000e+00  0.0000000000000e+00  0.0000000000000e+00
   366  3.6500000000000e+00  0.0000000000000e+00  0.0000000000000e+00
   367  3.6600000000000e+00  0.0000000000000e+00  0.0000000000000e+00
   368  3.6700000000000e+00  0.0000000000000e+00  0.0000000000000e+00
   369  3.6800000000000e+00  0.0000000000000e+00  0.0000000000000e+00
   370  3.6900000000000e+00  0.0000000000000e+00  0.0000000000000e+00
   371  3.7000000000000e+00  0.0000000000000e+00  0.0000000000000e+00
   372  3.7100000000000e+00  0.0000000000000e+00  0.0000000000000e+00
   373  3.7200000000000e+00  0.0000000000000e+00  0.0000000000000e+00
   374  3.7300000000000e+00  0.0000000000000e+00  0.0000000000000e+00
   375  3.7400000000000e+00  0.0000000000000e+00  0.0000000000000e+00
   376  3.7500000000000e+00  0.0000000000000e+00  0.0000000000000e+00
   377  3.7600000000000e+00  0.0000000000000e+00  0.0000000000000e+00
   378  3.7700000000000e+00  0.0000000000000e+00  0.0000000000000e+00
   379  3.7800000000000e+00  0.0000000000000e+00  0.0000000000000e+00
   380  3.7900000000000e+00  0.0000000000000e+00  0.0000000000000e+00
   381  3.8000000000000e+00  0.0000000000000e+00  0.0000000000000e+00
   382  3.8100000000000e+00  0.0000000000000e+00  0.0000000000000e+00
   383  3.8200000000000e+00  0.0000000000000e+00  0.0000000000000e+00
   384  3.8300000000000e+00  0.0000000000000e+00  0.0000000000000e+00
   385  3.8400000000000e+00  0.0000000000000e+00  0.0000000000000e+00
   386  3.8500000000000e+00  0.0000000000000e+00  0.0000000000000e+00
   387  3.8600000000000e+00  0.0000000000000e+00  0.0000000000000e+00
   388  3.8700000000000e+00  0.0000000000000e+00  0.0000000000000e+00
   389  3.8800000000000e+00  0.0000000000000e+00  0.0000000000000e+00
   390  3.8900000000000e+00  0.0000000000000e+00  0.0000000000000e+00
   391  3.9000000000000e+00  0.0000000000000e+00  0.0000000000000e+00
   392  3.9100000000000e+00  0.0000000000000e+00  0.0000000000000e+00
   393  3.9200000000000e+00  0.0000000000000e+00  0.0000000000000e+00
   394  3.9300000000000e+00  0.0000000000000e+00  0.0000000000000e+00
   395  3.9400000000000e+00  0.0000000000000e+00  0.0000000000000e+00
   396  3.9500000000000e+00  0.0000000000000e+00  0.0000000000000e+00
   397  3.9600000000000e+00  0.0000000000000e+00  0.0000000000000e+00
   398  3.9700000000000e+00  0.0000000000000e+00  0.0000000000000e+00
   399  3.9800000000000e+00  0.0000000000000e+00  0.0000000000000e+00
   400  3.9900000000000e+00  0.0000000000000e+00  0.0000000000000e+00
   401  4.0000000000000e+00  0.0000000000000e+00  0.0000000000000e+00
   402  4.0100000000000e+00  0.0000000000000e+00  0.0000000000000e+00
   403  4.0200000000000e+00  0.0000000000000e+00  0.0000000000000e+00
   404  4.0300000000000e+00  0.0000000000000e+00  0.0000000000000e+00
   405  4.0400000000000e+00  0.0000000000000e+00  0.0000000000000e+00
   406  4.0500000000000e+00  0.0000000000000e+00  0.0000000000000e+00
   407  4.0600000000000e+00  0.0000000000000e+00  0.0000000000000e+00
   408  4.0700000000000e+00  0.0000000000000e+00  0.0000000000000e+00
   409  4.0800000000000e+00  0.0000000000000e+00  0.0000000000000e+00
   410  4.0900000000000e+00  0.0000000000000e+00  0.0000000000000e+00
   411  4.1000000000000e+00  0.0000000000000e+00  0.0000000000000e+00
   412  4.1100000000000e+00  0.0000000000000e+00  0.0000000000000e+00
   413  4.1200000000000e+00  0.0000000000000e+00  0.0000000000000e+00
   414  4.1300000000000e+00  0.0000000000000e+00  0.0000000000000e+00
   415  4.1400000000000e+00  0.0000000000000e+00  0.0000000000000e+00
   416  4.1500000000000e+00  0.0000000000000e+00  0.0000000000000e+00
   417  4.1600000000000e+00  0.0000000000000e+00  0.0000000000000e+00
   418  4.1700000000000e+00  0.0000000000000e+00  0.0000000000000e+00
   419  4.1800000000000e+00  0.0000000000000e+00  0.0000000000000e+00
   420  4.1900000000000e+00  0.0000000000000e+00  0.0000000000000e+00
   421  4.2000000000000e+00  0.0000000000000e+00  0.0000000000000e+00
   422  4.2100000000000e+00  0.0000000000000e+00  0.0000000000000e+00
   423  4.2200000000000e+00  0.0000000000000e+00  0.0000000000000e+00