Fe    ONCVPSP-3.3.0  r_core=   1.26437   1.20546   1.56719
26.0000     16.0000      180420    zatom,zion,pspd
8      11   2     4   600     0    pspcod,pspxc,lmax,lloc,mmax,r2well
5.99000000  3.00000000  0.00000000    rchrg fchrg qchrg
2     4     2     0    nproj
3     1           extension_switch
4     3     0    nprojso
0                         1.4647941910597E+00  1.0168092022082E+01
1  0.0000000000000E+00  2.2269380783868E-10  8.4388052101758E-13
2  1.0000000000000E-02 -2.8517823244248E-02  9.4993582653950E-02
3  2.0000000000000E-02 -5.6781912326236E-02  1.8969918201095E-01
4  3.0000000000000E-02 -8.4539952816136E-02  2.8382980920857E-01
5  4.0000000000000E-02 -1.1154246132547E-01  3.7710046123367E-01
6  5.0000000000000E-02 -1.3754418002561E-01  4.6922910629713E-01
7  6.0000000000000E-02 -1.6230544612163E-01  5.5993766014683E-01
8  7.0000000000000E-02 -1.8559352819581E-01  6.4895295029625E-01
9  8.0000000000000E-02 -2.0718392155752E-01  7.3600766514478E-01
10  9.0000000000000E-02 -2.2686159501242E-01  8.2084128496681E-01
11  1.0000000000000E-01 -2.4442218179098E-01  9.0320099174889E-01
12  1.1000000000000E-01 -2.5967310775251E-01  9.8284255486009E-01
13  1.2000000000000E-01 -2.7243465040445E-01  1.0595311895510E+00
14  1.3000000000000E-01 -2.8254092274362E-01  1.1330423852924E+00
15  1.4000000000000E-01 -2.8984077643405E-01  1.2031627009874E+00
16  1.5000000000000E-01 -2.9419861938153E-01  1.2696905241222E+00
17  1.6000000000000E-01 -2.9549514334371E-01  1.3324367909611E+00
18  1.7000000000000E-01 -2.9362795782282E-01  1.3912256649432E+00
19  1.8000000000000E-01 -2.8851212712124E-01  1.4458951705038E+00
20  1.9000000000000E-01 -2.8008060809357E-01  1.4962977796191E+00
21  2.0000000000000E-01 -2.6828458679719E-01  1.5423009484689E+00
22  2.1000000000000E-01 -2.5309371292225E-01  1.5837876017179E+00
23  2.2000000000000E-01 -2.3449623156477E-01  1.6206565620429E+00
24  2.3000000000000E-01 -2.1249901258913E-01  1.6528229226763E+00
25  2.4000000000000E-01 -1.8712747850153E-01  1.6802183608960E+00
26  2.5000000000000E-01 -1.5842543241948E-01  1.7027913905710E+00
27  2.6000000000000E-01 -1.2645478836715E-01  1.7205075520683E+00
28  2.7000000000000E-01 -9.1295206748181E-02  1.7333495380427E+00
29  2.8000000000000E-01 -5.3043638439397E-02  1.7413172538620E+00
30  2.9000000000000E-01 -1.1813781506137E-02  1.7444278116678E+00
31  3.0000000000000E-01  3.2264544942447E-02  1.7427154573407E+00
32  3.1000000000000E-01  7.9046104766738E-02  1.7362314299126E+00
33  3.2000000000000E-01  1.2837102126374E-01  1.7250437532651E+00
34  3.3000000000000E-01  1.8006562030187E-01  1.7092369602533E+00
35  3.4000000000000E-01  2.3394333402289E-01  1.6889117497107E+00
36  3.5000000000000E-01  2.8980565875602E-01  1.6641845771075E+00
37  3.6000000000000E-01  3.4744316059457E-01  1.6351871799643E+00
38  3.7000000000000E-01  4.0663652195618E-01  1.6020660394493E+00
39  3.8000000000000E-01  4.6715762238035E-01  1.5649817799159E+00
40  3.9000000000000E-01  5.2877064681471E-01  1.5241085084682E+00
41  4.0000000000000E-01  5.9123321470211E-01  1.4796330969600E+00
42  4.1000000000000E-01  6.5429752330282E-01  1.4317544091508E+00
43  4.2000000000000E-01  7.1771149886775E-01  1.3806824760470E+00
44  4.3000000000000E-01  7.8121994951690E-01  1.3266376227499E+00
45  4.4000000000000E-01  8.4456571396679E-01  1.2698495504100E+00
46  4.5000000000000E-01  9.0749080058919E-01  1.2105563771490E+00
47  4.6000000000000E-01  9.6973751166318E-01  1.1490036420524E+00
48  4.7000000000000E-01  1.0310495480996E+00  1.0854432765576E+00
49  4.8000000000000E-01  1.0911730903625E+00  1.0201325477584E+00
50  4.9000000000000E-01  1.1498578517832E+00  9.5333297832147E-01
51  5.0000000000000E-01  1.2068581009447E+00  8.8530924785709E-01
52  5.1000000000000E-01  1.2619336503087E+00  8.1632808070535E-01
53  5.2000000000000E-01  1.3148508087486E+00  7.4665712519160E-01
54  5.3000000000000E-01  1.3653832961373E+00  6.7656382946775E-01
55  5.4000000000000E-01  1.4133131186033E+00  6.0631431908951E-01
56  5.5000000000000E-01  1.4584314035195E+00  5.3617228148477E-01
57  5.6000000000000E-01  1.5005391936954E+00  4.6639786244361E-01
58  5.7000000000000E-01  1.5394482006261E+00  3.9724657970755E-01
59  5.8000000000000E-01  1.5749815169774E+00  3.2896825865483E-01
60  5.9000000000000E-01  1.6069742887719E+00  2.6180599497001E-01
61  6.0000000000000E-01  1.6352743479657E+00  1.9599514905276E-01
62  6.1000000000000E-01  1.6597428062727E+00  1.3176237676125E-01
63  6.2000000000000E-01  1.6802546112015E+00  6.9324700904300E-02
64  6.3000000000000E-01  1.6966990653098E+00  8.8886276919773E-03
65  6.4000000000000E-01  1.7089803096572E+00 -4.9350687868201E-02
66  6.5000000000000E-01  1.7170177723521E+00 -1.0521022388446E-01
67  6.6000000000000E-01  1.7207465829352E+00 -1.5851981731620E-01
68  6.7000000000000E-01  1.7201179531277E+00 -2.0912283031505E-01
69  6.8000000000000E-01  1.7150995242083E+00 -2.5687675424023E-01
70  6.9000000000000E-01  1.7056756809548E+00 -3.0165374870974E-01
71  7.0000000000000E-01  1.6918478317217E+00 -3.4334111335189E-01
72  7.1000000000000E-01  1.6736346538161E+00 -3.8184169022815E-01
73  7.2000000000000E-01  1.6510723028933E+00 -4.1707419521246E-01
74  7.3000000000000E-01  1.6242145846310E+00 -4.4897347692565E-01
75  7.4000000000000E-01  1.5931330864634E+00 -4.7749070213871E-01
76  7.5000000000000E-01  1.5579172666749E+00 -5.0259346687343E-01
77  7.6000000000000E-01  1.5186744976770E+00 -5.2426583273919E-01
78  7.7000000000000E-01  1.4755300598345E+00 -5.4250828835267E-01
79  7.8000000000000E-01  1.4286270817707E+00 -5.5733763598876E-01
80  7.9000000000000E-01  1.3781264226909E+00 -5.6878680390553E-01
81  8.0000000000000E-01  1.3242064919092E+00 -5.7690458507332E-01
82  8.1000000000000E-01  1.2670630004781E+00 -5.8175530331618E-01
83  8.2000000000000E-01  1.2069086395881E+00 -5.8341840814207E-01
84  8.3000000000000E-01  1.1439726802558E+00 -5.8198799979603E-01
85  8.4000000000000E-01  1.0785004887443E+00 -5.7757228631677E-01
86  8.5000000000000E-01  1.0107529521758E+00 -5.7029297461158E-01
87  8.6000000000000E-01  9.4100580889839E-01 -5.6028459778627E-01
88  8.7000000000000E-01  8.6954887837210E-01 -5.4769378117541E-01
89  8.8000000000000E-01  7.9668518563193E-01 -5.3267844971326E-01
90  8.9000000000000E-01  7.2272997577902E-01 -5.1540697946730E-01
91  9.0000000000000E-01  6.4800961443699E-01 -4.9605729632228E-01
92  9.1000000000000E-01  5.7286037068941E-01 -4.7481592495531E-01
93  9.2000000000000E-01  4.9762707967994E-01 -4.5187699137855E-01
94  9.3000000000000E-01  4.2266168280312E-01 -4.2744118244761E-01
95  9.4000000000000E-01  3.4832164423397E-01 -4.0171466583843E-01
96  9.5000000000000E-01  2.7496824342774E-01 -3.7490797408410E-01
97  9.6000000000000E-01  2.0296474415606E-01 -3.4723485633494E-01
98  9.7000000000000E-01  1.3267444163425E-01 -3.1891110155933E-01
99  9.8000000000000E-01  6.4458590279072E-02 -2.9015333693943E-01
100  9.9000000000000E-01 -1.3257843214952E-03 -2.6117780523464E-01
101  1.0000000000000E+00 -6.4328184631932E-02 -2.3219912488532E-01
102  1.0100000000000E+00 -1.2420704598861E-01 -2.0342903660978E-01
103  1.0200000000000E+00 -1.8063224043936E-01 -1.7507514020890E-01
104  1.0300000000000E+00 -2.3328767210174E-01 -1.4733962523476E-01
105  1.0400000000000E+00 -2.8187395564883E-01 -1.2041799909538E-01
106  1.0500000000000E+00 -3.2611116880043E-01 -9.4497816080251E-02
107  1.0600000000000E+00 -3.6574166890933E-01 -6.9757410656360E-02
108  1.0700000000000E+00 -4.0053296338562E-01 -4.6364638198773E-02
109  1.0800000000000E+00 -4.3028062796963E-01 -2.4475624772827E-02
110  1.0900000000000E+00 -4.5481127916050E-01 -4.2335232243226E-03
111  1.1000000000000E+00 -4.7398509824751E-01  1.4232576150653E-02
112  1.1100000000000E+00 -4.8770046011704E-01  3.0809329749699E-02
113  1.1200000000000E+00 -4.9589189970555E-01  4.5398871231340E-02
114  1.1300000000000E+00 -4.9851858397185E-01  5.7915714733493E-02
115  1.1400000000000E+00 -4.9555226567810E-01  6.8283251721890E-02
116  1.1500000000000E+00 -4.8697589250951E-01  7.6433231350556E-02
117  1.1600000000000E+00 -4.7278535814880E-01  8.2306113120446E-02
118  1.1700000000000E+00 -4.5298977180283E-01  8.5851003551349E-02
119  1.1800000000000E+00 -4.2761203862841E-01  8.7025675781993E-02
120  1.1900000000000E+00 -3.9668937967629E-01  8.5796573584713E-02
121  1.2000000000000E+00 -3.6027377798302E-01  8.2138797860527E-02
122  1.2100000000000E+00 -3.1843235264735E-01  7.6036078330624E-02
123  1.2200000000000E+00 -2.7124393158659E-01  6.7479631468983E-02
124  1.2300000000000E+00 -2.1860435965357E-01  5.6410553193605E-02
125  1.2400000000000E+00 -1.6294388720646E-01  4.3517665083780E-02
126  1.2500000000000E+00 -9.7861639165428E-02  2.6907642174732E-02
127  1.2600000000000E+00 -2.3151604720032E-02  6.5093055517228E-03
128  1.2700000000000E+00  8.6490507598065E-03 -2.3759442853116E-03
129  1.2800000000000E+00 -2.6102257778311E-04  7.1431159146757E-05
130  1.2900000000000E+00 -1.6933283019938E-03  4.6508032288503E-04
131  1.3000000000000E+00  2.5386926766912E-04 -6.8346153576649E-05
132  1.3100000000000E+00  2.3226664393534E-05 -6.2613654103600E-06
133  1.3200000000000E+00  9.1019890563823E-07 -3.9394160036914E-07
134  1.3300000000000E+00  0.0000000000000E+00  0.0000000000000E+00
135  1.3400000000000E+00  0.0000000000000E+00  0.0000000000000E+00
136  1.3500000000000E+00  0.0000000000000E+00  0.0000000000000E+00
137  1.3600000000000E+00  0.0000000000000E+00  0.0000000000000E+00
138  1.3700000000000E+00  0.0000000000000E+00  0.0000000000000E+00
139  1.3800000000000E+00  0.0000000000000E+00  0.0000000000000E+00
140  1.3900000000000E+00  0.0000000000000E+00  0.0000000000000E+00
141  1.4000000000000E+00  0.0000000000000E+00  0.0000000000000E+00
142  1.4100000000000E+00  0.0000000000000E+00  0.0000000000000E+00
143  1.4200000000000E+00  0.0000000000000E+00  0.0000000000000E+00
144  1.4300000000000E+00  0.0000000000000E+00  0.0000000000000E+00
145  1.4400000000000E+00  0.0000000000000E+00  0.0000000000000E+00
146  1.4500000000000E+00  0.0000000000000E+00  0.0000000000000E+00
147  1.4600000000000E+00  0.0000000000000E+00  0.0000000000000E+00
148  1.4700000000000E+00  0.0000000000000E+00  0.0000000000000E+00
149  1.4800000000000E+00  0.0000000000000E+00  0.0000000000000E+00
150  1.4900000000000E+00  0.0000000000000E+00  0.0000000000000E+00
151  1.5000000000000E+00  0.0000000000000E+00  0.0000000000000E+00
152  1.5100000000000E+00  0.0000000000000E+00  0.0000000000000E+00
153  1.5200000000000E+00  0.0000000000000E+00  0.0000000000000E+00
154  1.5300000000000E+00  0.0000000000000E+00  0.0000000000000E+00
155  1.5400000000000E+00  0.0000000000000E+00  0.0000000000000E+00
156  1.5500000000000E+00  0.0000000000000E+00  0.0000000000000E+00
157  1.5600000000000E+00  0.0000000000000E+00  0.0000000000000E+00
158  1.5700000000000E+00  0.0000000000000E+00  0.0000000000000E+00
159  1.5800000000000E+00  0.0000000000000E+00  0.0000000000000E+00
160  1.5900000000000E+00  0.0000000000000E+00  0.0000000000000E+00
161  1.6000000000000E+00  0.0000000000000E+00  0.0000000000000E+00
162  1.6100000000000E+00  0.0000000000000E+00  0.0000000000000E+00
163  1.6200000000000E+00  0.0000000000000E+00  0.0000000000000E+00
164  1.6300000000000E+00  0.0000000000000E+00  0.0000000000000E+00
165  1.6400000000000E+00  0.0000000000000E+00  0.0000000000000E+00
166  1.6500000000000E+00  0.0000000000000E+00  0.0000000000000E+00
167  1.6600000000000E+00  0.0000000000000E+00  0.0000000000000E+00
168  1.6700000000000E+00  0.0000000000000E+00  0.0000000000000E+00
169  1.6800000000000E+00  0.0000000000000E+00  0.0000000000000E+00
170  1.6900000000000E+00  0.0000000000000E+00  0.0000000000000E+00
171  1.7000000000000E+00  0.0000000000000E+00  0.0000000000000E+00
172  1.7100000000000E+00  0.0000000000000E+00  0.0000000000000E+00
173  1.7200000000000E+00  0.0000000000000E+00  0.0000000000000E+00
174  1.7300000000000E+00  0.0000000000000E+00  0.0000000000000E+00
175  1.7400000000000E+00  0.0000000000000E+00  0.0000000000000E+00
176  1.7500000000000E+00  0.0000000000000E+00  0.0000000000000E+00
177  1.7600000000000E+00  0.0000000000000E+00  0.0000000000000E+00
178  1.7700000000000E+00  0.0000000000000E+00  0.0000000000000E+00
179  1.7800000000000E+00  0.0000000000000E+00  0.0000000000000E+00
180  1.7900000000000E+00  0.0000000000000E+00  0.0000000000000E+00
181  1.8000000000000E+00  0.0000000000000E+00  0.0000000000000E+00
182  1.8100000000000E+00  0.0000000000000E+00  0.0000000000000E+00
183  1.8200000000000E+00  0.0000000000000E+00  0.0000000000000E+00
184  1.8300000000000E+00  0.0000000000000E+00  0.0000000000000E+00
185  1.8400000000000E+00  0.0000000000000E+00  0.0000000000000E+00
186  1.8500000000000E+00  0.0000000000000E+00  0.0000000000000E+00
187  1.8600000000000E+00  0.0000000000000E+00  0.0000000000000E+00
188  1.8700000000000E+00  0.0000000000000E+00  0.0000000000000E+00
189  1.8800000000000E+00  0.0000000000000E+00  0.0000000000000E+00
190  1.8900000000000E+00  0.0000000000000E+00  0.0000000000000E+00
191  1.9000000000000E+00  0.0000000000000E+00  0.0000000000000E+00
192  1.9100000000000E+00  0.0000000000000E+00  0.0000000000000E+00
193  1.9200000000000E+00  0.0000000000000E+00  0.0000000000000E+00
194  1.9300000000000E+00  0.0000000000000E+00  0.0000000000000E+00
195  1.9400000000000E+00  0.0000000000000E+00  0.0000000000000E+00
196  1.9500000000000E+00  0.0000000000000E+00  0.0000000000000E+00
197  1.9600000000000E+00  0.0000000000000E+00  0.0000000000000E+00
198  1.9700000000000E+00  0.0000000000000E+00  0.0000000000000E+00
199  1.9800000000000E+00  0.0000000000000E+00  0.0000000000000E+00
200  1.9900000000000E+00  0.0000000000000E+00  0.0000000000000E+00
201  2.0000000000000E+00  0.0000000000000E+00  0.0000000000000E+00
202  2.0100000000000E+00  0.0000000000000E+00  0.0000000000000E+00
203  2.0200000000000E+00  0.0000000000000E+00  0.0000000000000E+00
204  2.0300000000000E+00  0.0000000000000E+00  0.0000000000000E+00
205  2.0400000000000E+00  0.0000000000000E+00  0.0000000000000E+00
206  2.0500000000000E+00  0.0000000000000E+00  0.0000000000000E+00
207  2.0600000000000E+00  0.0000000000000E+00  0.0000000000000E+00
208  2.0700000000000E+00  0.0000000000000E+00  0.0000000000000E+00
209  2.0800000000000E+00  0.0000000000000E+00  0.0000000000000E+00
210  2.0900000000000E+00  0.0000000000000E+00  0.0000000000000E+00
211  2.1000000000000E+00  0.0000000000000E+00  0.0000000000000E+00
212  2.1100000000000E+00  0.0000000000000E+00  0.0000000000000E+00
213  2.1200000000000E+00  0.0000000000000E+00  0.0000000000000E+00
214  2.1300000000000E+00  0.0000000000000E+00  0.0000000000000E+00
215  2.1400000000000E+00  0.0000000000000E+00  0.0000000000000E+00
216  2.1500000000000E+00  0.0000000000000E+00  0.0000000000000E+00
217  2.1600000000000E+00  0.0000000000000E+00  0.0000000000000E+00
218  2.1700000000000E+00  0.0000000000000E+00  0.0000000000000E+00
219  2.1800000000000E+00  0.0000000000000E+00  0.0000000000000E+00
220  2.1900000000000E+00  0.0000000000000E+00  0.0000000000000E+00
221  2.2000000000000E+00  0.0000000000000E+00  0.0000000000000E+00
222  2.2100000000000E+00  0.0000000000000E+00  0.0000000000000E+00
223  2.2200000000000E+00  0.0000000000000E+00  0.0000000000000E+00
224  2.2300000000000E+00  0.0000000000000E+00  0.0000000000000E+00
225  2.2400000000000E+00  0.0000000000000E+00  0.0000000000000E+00
226  2.2500000000000E+00  0.0000000000000E+00  0.0000000000000E+00
227  2.2600000000000E+00  0.0000000000000E+00  0.0000000000000E+00
228  2.2700000000000E+00  0.0000000000000E+00  0.0000000000000E+00
229  2.2800000000000E+00  0.0000000000000E+00  0.0000000000000E+00
230  2.2900000000000E+00  0.0000000000000E+00  0.0000000000000E+00
231  2.3000000000000E+00  0.0000000000000E+00  0.0000000000000E+00
232  2.3100000000000E+00  0.0000000000000E+00  0.0000000000000E+00
233  2.3200000000000E+00  0.0000000000000E+00  0.0000000000000E+00
234  2.3300000000000E+00  0.0000000000000E+00  0.0000000000000E+00
235  2.3400000000000E+00  0.0000000000000E+00  0.0000000000000E+00
236  2.3500000000000E+00  0.0000000000000E+00  0.0000000000000E+00
237  2.3600000000000E+00  0.0000000000000E+00  0.0000000000000E+00
238  2.3700000000000E+00  0.0000000000000E+00  0.0000000000000E+00
239  2.3800000000000E+00  0.0000000000000E+00  0.0000000000000E+00
240  2.3900000000000E+00  0.0000000000000E+00  0.0000000000000E+00
241  2.4000000000000E+00  0.0000000000000E+00  0.0000000000000E+00
242  2.4100000000000E+00  0.0000000000000E+00  0.0000000000000E+00
243  2.4200000000000E+00  0.0000000000000E+00  0.0000000000000E+00
244  2.4300000000000E+00  0.0000000000000E+00  0.0000000000000E+00
245  2.4400000000000E+00  0.0000000000000E+00  0.0000000000000E+00
246  2.4500000000000E+00  0.0000000000000E+00  0.0000000000000E+00
247  2.4600000000000E+00  0.0000000000000E+00  0.0000000000000E+00
248  2.4700000000000E+00  0.0000000000000E+00  0.0000000000000E+00
249  2.4800000000000E+00  0.0000000000000E+00  0.0000000000000E+00
250  2.4900000000000E+00  0.0000000000000E+00  0.0000000000000E+00
251  2.5000000000000E+00  0.0000000000000E+00  0.0000000000000E+00
252  2.5100000000000E+00  0.0000000000000E+00  0.0000000000000E+00
253  2.5200000000000E+00  0.0000000000000E+00  0.0000000000000E+00
254  2.5300000000000E+00  0.0000000000000E+00  0.0000000000000E+00
255  2.5400000000000E+00  0.0000000000000E+00  0.0000000000000E+00
256  2.5500000000000E+00  0.0000000000000E+00  0.0000000000000E+00
257  2.5600000000000E+00  0.0000000000000E+00  0.0000000000000E+00
258  2.5700000000000E+00  0.0000000000000E+00  0.0000000000000E+00
259  2.5800000000000E+00  0.0000000000000E+00  0.0000000000000E+00
260  2.5900000000000E+00  0.0000000000000E+00  0.0000000000000E+00
261  2.6000000000000E+00  0.0000000000000E+00  0.0000000000000E+00
262  2.6100000000000E+00  0.0000000000000E+00  0.0000000000000E+00
263  2.6200000000000E+00  0.0000000000000E+00  0.0000000000000E+00
264  2.6300000000000E+00  0.0000000000000E+00  0.0000000000000E+00
265  2.6400000000000E+00  0.0000000000000E+00  0.0000000000000E+00
266  2.6500000000000E+00  0.0000000000000E+00  0.0000000000000E+00
267  2.6600000000000E+00  0.0000000000000E+00  0.0000000000000E+00
268  2.6700000000000E+00  0.0000000000000E+00  0.0000000000000E+00
269  2.6800000000000E+00  0.0000000000000E+00  0.0000000000000E+00
270  2.6900000000000E+00  0.0000000000000E+00  0.0000000000000E+00
271  2.7000000000000E+00  0.0000000000000E+00  0.0000000000000E+00
272  2.7100000000000E+00  0.0000000000000E+00  0.0000000000000E+00
273  2.7200000000000E+00  0.0000000000000E+00  0.0000000000000E+00
274  2.7300000000000E+00  0.0000000000000E+00  0.0000000000000E+00
275  2.7400000000000E+00  0.0000000000000E+00  0.0000000000000E+00
276  2.7500000000000E+00  0.0000000000000E+00  0.0000000000000E+00
277  2.7600000000000E+00  0.0000000000000E+00  0.0000000000000E+00
278  2.7700000000000E+00  0.0000000000000E+00  0.0000000000000E+00
279  2.7800000000000E+00  0.0000000000000E+00  0.0000000000000E+00
280  2.7900000000000E+00  0.0000000000000E+00  0.0000000000000E+00
281  2.8000000000000E+00  0.0000000000000E+00  0.0000000000000E+00
282  2.8100000000000E+00  0.0000000000000E+00  0.0000000000000E+00
283  2.8200000000000E+00  0.0000000000000E+00  0.0000000000000E+00
284  2.8300000000000E+00  0.0000000000000E+00  0.0000000000000E+00
285  2.8400000000000E+00  0.0000000000000E+00  0.0000000000000E+00
286  2.8500000000000E+00  0.0000000000000E+00  0.0000000000000E+00
287  2.8600000000000E+00  0.0000000000000E+00  0.0000000000000E+00
288  2.8700000000000E+00  0.0000000000000E+00  0.0000000000000E+00
289  2.8800000000000E+00  0.0000000000000E+00  0.0000000000000E+00
290  2.8900000000000E+00  0.0000000000000E+00  0.0000000000000E+00
291  2.9000000000000E+00  0.0000000000000E+00  0.0000000000000E+00
292  2.9100000000000E+00  0.0000000000000E+00  0.0000000000000E+00
293  2.9200000000000E+00  0.0000000000000E+00  0.0000000000000E+00
294  2.9300000000000E+00  0.0000000000000E+00  0.0000000000000E+00
295  2.9400000000000E+00  0.0000000000000E+00  0.0000000000000E+00
296  2.9500000000000E+00  0.0000000000000E+00  0.0000000000000E+00
297  2.9600000000000E+00  0.0000000000000E+00  0.0000000000000E+00
298  2.9700000000000E+00  0.0000000000000E+00  0.0000000000000E+00
299  2.9800000000000E+00  0.0000000000000E+00  0.0000000000000E+00
300  2.9900000000000E+00  0.0000000000000E+00  0.0000000000000E+00
301  3.0000000000000E+00  0.0000000000000E+00  0.0000000000000E+00
302  3.0100000000000E+00  0.0000000000000E+00  0.0000000000000E+00
303  3.0200000000000E+00  0.0000000000000E+00  0.0000000000000E+00
304  3.0300000000000E+00  0.0000000000000E+00  0.0000000000000E+00
305  3.0400000000000E+00  0.0000000000000E+00  0.0000000000000E+00
306  3.0500000000000E+00  0.0000000000000E+00  0.0000000000000E+00
307  3.0600000000000E+00  0.0000000000000E+00  0.0000000000000E+00
308  3.0700000000000E+00  0.0000000000000E+00  0.0000000000000E+00
309  3.0800000000000E+00  0.0000000000000E+00  0.0000000000000E+00
310  3.0900000000000E+00  0.0000000000000E+00  0.0000000000000E+00
311  3.1000000000000E+00  0.0000000000000E+00  0.0000000000000E+00
312  3.1100000000000E+00  0.0000000000000E+00  0.0000000000000E+00
313  3.1200000000000E+00  0.0000000000000E+00  0.0000000000000E+00
314  3.1300000000000E+00  0.0000000000000E+00  0.0000000000000E+00
315  3.1400000000000E+00  0.0000000000000E+00  0.0000000000000E+00
316  3.1500000000000E+00  0.0000000000000E+00  0.0000000000000E+00
317  3.1600000000000E+00  0.0000000000000E+00  0.0000000000000E+00
318  3.1700000000000E+00  0.0000000000000E+00  0.0000000000000E+00
319  3.1800000000000E+00  0.0000000000000E+00  0.0000000000000E+00
320  3.1900000000000E+00  0.0000000000000E+00  0.0000000000000E+00
321  3.2000000000000E+00  0.0000000000000E+00  0.0000000000000E+00
322  3.2100000000000E+00  0.0000000000000E+00  0.0000000000000E+00
323  3.2200000000000E+00  0.0000000000000E+00  0.0000000000000E+00
324  3.2300000000000E+00  0.0000000000000E+00  0.0000000000000E+00
325  3.2400000000000E+00  0.0000000000000E+00  0.0000000000000E+00
326  3.2500000000000E+00  0.0000000000000E+00  0.0000000000000E+00
327  3.2600000000000E+00  0.0000000000000E+00  0.0000000000000E+00
328  3.2700000000000E+00  0.0000000000000E+00  0.0000000000000E+00
329  3.2800000000000E+00  0.0000000000000E+00  0.0000000000000E+00
330  3.2900000000000E+00  0.0000000000000E+00  0.0000000000000E+00
331  3.3000000000000E+00  0.0000000000000E+00  0.0000000000000E+00
332  3.3100000000000E+00  0.0000000000000E+00  0.0000000000000E+00
333  3.3200000000000E+00  0.0000000000000E+00  0.0000000000000E+00
334  3.3300000000000E+00  0.0000000000000E+00  0.0000000000000E+00
335  3.3400000000000E+00  0.0000000000000E+00  0.0000000000000E+00
336  3.3500000000000E+00  0.0000000000000E+00  0.0000000000000E+00
337  3.3600000000000E+00  0.0000000000000E+00  0.0000000000000E+00
338  3.3700000000000E+00  0.0000000000000E+00  0.0000000000000E+00
339  3.3800000000000E+00  0.0000000000000E+00  0.0000000000000E+00
340  3.3900000000000E+00  0.0000000000000E+00  0.0000000000000E+00
341  3.4000000000000E+00  0.0000000000000E+00  0.0000000000000E+00
342  3.4100000000000E+00  0.0000000000000E+00  0.0000000000000E+00
343  3.4200000000000E+00  0.0000000000000E+00  0.0000000000000E+00
344  3.4300000000000E+00  0.0000000000000E+00  0.0000000000000E+00
345  3.4400000000000E+00  0.0000000000000E+00  0.0000000000000E+00
346  3.4500000000000E+00  0.0000000000000E+00  0.0000000000000E+00
347  3.4600000000000E+00  0.0000000000000E+00  0.0000000000000E+00
348  3.4700000000000E+00  0.0000000000000E+00  0.0000000000000E+00
349  3.4800000000000E+00  0.0000000000000E+00  0.0000000000000E+00
350  3.4900000000000E+00  0.0000000000000E+00  0.0000000000000E+00
351  3.5000000000000E+00  0.0000000000000E+00  0.0000000000000E+00
352  3.5100000000000E+00  0.0000000000000E+00  0.0000000000000E+00
353  3.5200000000000E+00  0.0000000000000E+00  0.0000000000000E+00
354  3.5300000000000E+00  0.0000000000000E+00  0.0000000000000E+00
355  3.5400000000000E+00  0.0000000000000E+00  0.0000000000000E+00
356  3.5500000000000E+00  0.0000000000000E+00  0.0000000000000E+00
357  3.5600000000000E+00  0.0000000000000E+00  0.0000000000000E+00
358  3.5700000000000E+00  0.0000000000000E+00  0.0000000000000E+00
359  3.5800000000000E+00  0.0000000000000E+00  0.0000000000000E+00
360  3.5900000000000E+00  0.0000000000000E+00  0.0000000000000E+00
361  3.6000000000000E+00  0.0000000000000E+00  0.0000000000000E+00
362  3.6100000000000E+00  0.0000000000000E+00  0.0000000000000E+00
363  3.6200000000000E+00  0.0000000000000E+00  0.0000000000000E+00
364  3.6300000000000E+00  0.0000000000000E+00  0.0000000000000E+00
365  3.6400000000000E+00  0.0000000000000E+00  0.0000000000000E+00
366  3.6500000000000E+00  0.0000000000000E+00  0.0000000000000E+00
367  3.6600000000000E+00  0.0000000000000E+00  0.0000000000000E+00
368  3.6700000000000E+00  0.0000000000000E+00  0.0000000000000E+00
369  3.6800000000000E+00  0.0000000000000E+00  0.0000000000000E+00
370  3.6900000000000E+00  0.0000000000000E+00  0.0000000000000E+00
371  3.7000000000000E+00  0.0000000000000E+00  0.0000000000000E+00
372  3.7100000000000E+00  0.0000000000000E+00  0.0000000000000E+00
373  3.7200000000000E+00  0.0000000000000E+00  0.0000000000000E+00
374  3.7300000000000E+00  0.0000000000000E+00  0.0000000000000E+00
375  3.7400000000000E+00  0.0000000000000E+00  0.0000000000000E+00
376  3.7500000000000E+00  0.0000000000000E+00  0.0000000000000E+00
377  3.7600000000000E+00  0.0000000000000E+00  0.0000000000000E+00
378  3.7700000000000E+00  0.0000000000000E+00  0.0000000000000E+00
379  3.7800000000000E+00  0.0000000000000E+00  0.0000000000000E+00
380  3.7900000000000E+00  0.0000000000000E+00  0.0000000000000E+00
381  3.8000000000000E+00  0.0000000000000E+00  0.0000000000000E+00
382  3.8100000000000E+00  0.0000000000000E+00  0.0000000000000E+00
383  3.8200000000000E+00  0.0000000000000E+00  0.0000000000000E+00
384  3.8300000000000E+00  0.0000000000000E+00  0.0000000000000E+00
385  3.8400000000000E+00  0.0000000000000E+00  0.0000000000000E+00
386  3.8500000000000E+00  0.0000000000000E+00  0.0000000000000E+00
387  3.8600000000000E+00  0.0000000000000E+00  0.0000000000000E+00
388  3.8700000000000E+00  0.0000000000000E+00  0.0000000000000E+00
389  3.8800000000000E+00  0.0000000000000E+00  0.0000000000000E+00
390  3.8900000000000E+00  0.0000000000000E+00  0.0000000000000E+00
391  3.9000000000000E+00  0.0000000000000E+00  0.0000000000000E+00
392  3.9100000000000E+00  0.0000000000000E+00  0.0000000000000E+00
393  3.9200000000000E+00  0.0000000000000E+00  0.0000000000000E+00
394  3.9300000000000E+00  0.0000000000000E+00  0.0000000000000E+00
395  3.9400000000000E+00  0.0000000000000E+00  0.0000000000000E+00
396  3.9500000000000E+00  0.0000000000000E+00  0.0000000000000E+00
397  3.9600000000000E+00  0.0000000000000E+00  0.0000000000000E+00
398  3.9700000000000E+00  0.0000000000000E+00  0.0000000000000E+00
399  3.9800000000000E+00  0.0000000000000E+00  0.0000000000000E+00
400  3.9900000000000E+00  0.0000000000000E+00  0.0000000000000E+00
401  4.0000000000000E+00  0.0000000000000E+00  0.0000000000000E+00
402  4.0100000000000E+00  0.0000000000000E+00  0.0000000000000E+00
403  4.0200000000000E+00  0.0000000000000E+00  0.0000000000000E+00
404  4.0300000000000E+00  0.0000000000000E+00  0.0000000000000E+00
405  4.0400000000000E+00  0.0000000000000E+00  0.0000000000000E+00
406  4.0500000000000E+00  0.0000000000000E+00  0.0000000000000E+00
407  4.0600000000000E+00  0.0000000000000E+00  0.0000000000000E+00
408  4.0700000000000E+00  0.0000000000000E+00  0.0000000000000E+00
409  4.0800000000000E+00  0.0000000000000E+00  0.0000000000000E+00
410  4.0900000000000E+00  0.0000000000000E+00  0.0000000000000E+00
411  4.1000000000000E+00  0.0000000000000E+00  0.0000000000000E+00
412  4.1100000000000E+00  0.0000000000000E+00  0.0000000000000E+00
413  4.1200000000000E+00  0.0000000000000E+00  0.0000000000000E+00
414  4.1300000000000E+00  0.0000000000000E+00  0.0000000000000E+00
415  4.1400000000000E+00  0.0000000000000E+00  0.0000000000000E+00
416  4.1500000000000E+00  0.0000000000000E+00  0.0000000000000E+00
417  4.1600000000000E+00  0.0000000000000E+00  0.0000000000000E+00
418  4.1700000000000E+00  0.0000000000000E+00  0.0000000000000E+00
419  4.1800000000000E+00  0.0000000000000E+00  0.0000000000000E+00
420  4.1900000000000E+00  0.0000000000000E+00  0.0000000000000E+00
421  4.2000000000000E+00  0.0000000000000E+00  0.0000000000000E+00
422  4.2100000000000E+00  0.0000000000000E+00  0.0000000000000E+00
423  4.2200000000000E+00  0.0000000000000E+00  0.0000000000000E+00
424  4.2300000000000E+00  0.0000000000000E+00  0.0000000000000E+00
425  4.2400000000000E+00  0.0000000000000E+00  0.0000000000000E+00
426  4.2500000000000E+00  0.0000000000000E+00  0.0000000000000E+00
427  4.2600000000000E+00  0.0000000000000E+00  0.0000000000000E+00
428  4.2700000000000E+00  0.0000000000000E+00  0.0000000000000E+00
429  4.2800000000000E+00  0.0000000000000E+00  0.0000000000000E+00
430  4.2900000000000E+00  0.0000000000000E+00  0.0000000000000E+00
431  4.3000000000000E+00  0.0000000000000E+00  0.0000000000000E+00
432  4.3100000000000E+00  0.0000000000000E+00  0.0000000000000E+00
433  4.3200000000000E+00  0.0000000000000E+00  0.0000000000000E+00
434  4.3300000000000E+00  0.0000000000000E+00  0.0000000000000E+00
435  4.3400000000000E+00  0.0000000000000E+00  0.0000000000000E+00
436  4.3500000000000E+00  0.0000000000000E+00  0.0000000000000E+00
437  4.3600000000000E+00  0.0000000000000E+00  0.0000000000000E+00
438  4.3700000000000E+00  0.0000000000000E+00  0.0000000000000E+00
439  4.3800000000000E+00  0.0000000000000E+00  0.0000000000000E+00
440  4.3900000000000E+00  0.0000000000000E+00  0.0000000000000E+00
441  4.4000000000000E+00  0.0000000000000E+00  0.0000000000000E+00
442  4.4100000000000E+00  0.0000000000000E+00  0.0000000000000E+00
443  4.4200000000000E+00  0.0000000000000E+00  0.0000000000000E+00